 Entering Gaussian System, Link 0=g09
 Input=o.com
 Output=o.log
 Initial command:
 /home/sara/bin/gaussian/g09/l1.exe "/home/sara/bin/gaussian/scratch/Gau-30967.inp" -scrdir="/home/sara/bin/gaussian/scratch/"
 Entering Link 1 = /home/sara/bin/gaussian/g09/l1.exe PID=     30969.
  
 Copyright (c) 1988,1990,1992,1993,1995,1998,2003,2009,2013,
            Gaussian, Inc.  All Rights Reserved.
  
 This is part of the Gaussian(R) 09 program.  It is based on
 the Gaussian(R) 03 system (copyright 2003, Gaussian, Inc.),
 the Gaussian(R) 98 system (copyright 1998, Gaussian, Inc.),
 the Gaussian(R) 94 system (copyright 1995, Gaussian, Inc.),
 the Gaussian 92(TM) system (copyright 1992, Gaussian, Inc.),
 the Gaussian 90(TM) system (copyright 1990, Gaussian, Inc.),
 the Gaussian 88(TM) system (copyright 1988, Gaussian, Inc.),
 the Gaussian 86(TM) system (copyright 1986, Carnegie Mellon
 University), and the Gaussian 82(TM) system (copyright 1983,
 Carnegie Mellon University). Gaussian is a federally registered
 trademark of Gaussian, Inc.
  
 This software contains proprietary and confidential information,
 including trade secrets, belonging to Gaussian, Inc.
  
 This software is provided under written license and may be
 used, copied, transmitted, or stored only in accord with that
 written license.
  
 The following legend is applicable only to US Government
 contracts under FAR:
  
                    RESTRICTED RIGHTS LEGEND
  
 Use, reproduction and disclosure by the US Government is
 subject to restrictions as set forth in subparagraphs (a)
 and (c) of the Commercial Computer Software - Restricted
 Rights clause in FAR 52.227-19.
  
 Gaussian, Inc.
 340 Quinnipiac St., Bldg. 40, Wallingford CT 06492
  
  
 ---------------------------------------------------------------
 Warning -- This program may not be used in any manner that
 competes with the business of Gaussian, Inc. or will provide
 assistance to any competitor of Gaussian, Inc.  The licensee
 of this program is prohibited from giving any competitor of
 Gaussian, Inc. access to this program.  By using this program,
 the user acknowledges that Gaussian, Inc. is engaged in the
 business of creating and licensing software in the field of
 computational chemistry and represents and warrants to the
 licensee that it is not a competitor of Gaussian, Inc. and that
 it will not use this program in any manner prohibited above.
 ---------------------------------------------------------------
  

 Cite this work as:
 Gaussian 09, Revision D.01,
 M. J. Frisch, G. W. Trucks, H. B. Schlegel, G. E. Scuseria, 
 M. A. Robb, J. R. Cheeseman, G. Scalmani, V. Barone, B. Mennucci, 
 G. A. Petersson, H. Nakatsuji, M. Caricato, X. Li, H. P. Hratchian, 
 A. F. Izmaylov, J. Bloino, G. Zheng, J. L. Sonnenberg, M. Hada, 
 M. Ehara, K. Toyota, R. Fukuda, J. Hasegawa, M. Ishida, T. Nakajima, 
 Y. Honda, O. Kitao, H. Nakai, T. Vreven, J. A. Montgomery, Jr., 
 J. E. Peralta, F. Ogliaro, M. Bearpark, J. J. Heyd, E. Brothers, 
 K. N. Kudin, V. N. Staroverov, T. Keith, R. Kobayashi, J. Normand, 
 K. Raghavachari, A. Rendell, J. C. Burant, S. S. Iyengar, J. Tomasi, 
 M. Cossi, N. Rega, J. M. Millam, M. Klene, J. E. Knox, J. B. Cross, 
 V. Bakken, C. Adamo, J. Jaramillo, R. Gomperts, R. E. Stratmann, 
 O. Yazyev, A. J. Austin, R. Cammi, C. Pomelli, J. W. Ochterski, 
 R. L. Martin, K. Morokuma, V. G. Zakrzewski, G. A. Voth, 
 P. Salvador, J. J. Dannenberg, S. Dapprich, A. D. Daniels, 
 O. Farkas, J. B. Foresman, J. V. Ortiz, J. Cioslowski, 
 and D. J. Fox, Gaussian, Inc., Wallingford CT, 2013.
 
 ******************************************
 Gaussian 09:  EM64L-G09RevD.01 24-Apr-2013
                22-Sep-2020 
 ******************************************
 %mem=4GB
 %nproc=6
 Will use up to    6 processors via shared memory.
 %chk=pto23.chk
 ---------------------------------------------
 #p m062x/6-311++g** pop=(nbo6read) output=wfx
 ---------------------------------------------
 1/38=1,163=2/1;
 2/12=2,17=6,18=5,40=1/2;
 3/5=4,6=6,7=1111,11=2,16=1,25=1,30=1,74=-55/1,2,3;
 4//1;
 5/5=2,38=5/2;
 6/7=2,8=2,9=2,10=2,28=1,40=2,113=1,114=1,124=2103/1,12;
 99/5=1,6=200,9=1/99;
 Leave Link    1 at Tue Sep 22 19:49:43 2020, MaxMem=   536870912 cpu:         0.4
 (Enter /home/sara/bin/gaussian/g09/l101.exe)
 ----------------------------------------------------------------------
 NET REACTION COORDINATE UP TO THIS POINT = 6.89968 in lines 17210:1724
 6 del irc
 ----------------------------------------------------------------------
 Symbolic Z-matrix:
 Charge =  0 Multiplicity = 1
 1                    -3.33583   2.57257   1.24544 
 6                    -2.4612    2.21482   0.71446 
 1                    -1.38646   1.73162   2.4911 
 6                    -1.38237   1.75722   1.40703 
 6                    -1.3824    1.75782  -1.40619 
 6                    -0.21332   1.30467   0.71726 
 6                    -2.46123   2.21509  -0.7134 
 6                    -0.21332   1.30501  -0.71663 
 6                     0.92469   0.87208   1.39893 
 1                    -3.33588   2.57303  -1.24422 
 1                    -1.38652   1.73267  -2.49027 
 6                     2.08853   0.50568   0.71615 
 6                     2.08855   0.50606  -0.7159 
 6                     3.28701   0.14246   1.40364 
 1                     5.32742  -0.42822   1.24447 
 6                     3.28704   0.14321  -1.40356 
 1                     3.2825    0.14527  -2.48838 
 6                     4.41818  -0.17372  -0.71292 
 1                     5.32745  -0.42755  -1.24464 
 6                     4.41817  -0.1741    0.71286 
 6                    -1.35188  -1.56409  -1.1442 
 6                    -1.35184  -1.56471   1.14343 
 8                    -1.73601  -1.43372  -2.27645 
 8                    -1.73598  -1.43494   2.27575 
 1                     3.28244   0.14395   2.48846 
 6                     0.9247    0.87279  -1.39851 
 1                     0.91583   0.85631  -2.48461 
 1                     0.91581   0.85506   2.48502 
 7                    -2.10913  -1.33286  -0.00031 
 6                    -3.51325  -0.98083  -0.00017 
 1                    -4.13827  -1.87647   0.00069 
 1                    -3.71886  -0.39072   0.89187 
 1                    -3.71922  -0.39217  -0.8931 
 6                     0.00672  -1.9908    0.6643 
 1                     0.80447  -2.2305    1.35137 
 6                     0.0067   -1.99044  -0.66532 
 1                     0.80443  -2.22977  -1.35255 
 
 NAtoms=     37 NQM=       37 NQMF=       0 NMMI=      0 NMMIF=      0
                NMic=       0 NMicF=      0.
                    Isotopes and Nuclear Properties:
 (Nuclear quadrupole moments (NQMom) in fm**2, nuclear magnetic moments (NMagM)
  in nuclear magnetons)

  Atom         1           2           3           4           5           6           7           8           9          10
 IAtWgt=           1          12           1          12          12          12          12          12          12           1
 AtmWgt=   1.0078250  12.0000000   1.0078250  12.0000000  12.0000000  12.0000000  12.0000000  12.0000000  12.0000000   1.0078250
 NucSpn=           1           0           1           0           0           0           0           0           0           1
 AtZEff=   0.0000000   0.0000000   0.0000000   0.0000000   0.0000000   0.0000000   0.0000000   0.0000000   0.0000000   0.0000000
 NQMom=    0.0000000   0.0000000   0.0000000   0.0000000   0.0000000   0.0000000   0.0000000   0.0000000   0.0000000   0.0000000
 NMagM=    2.7928460   0.0000000   2.7928460   0.0000000   0.0000000   0.0000000   0.0000000   0.0000000   0.0000000   2.7928460
 AtZNuc=   1.0000000   6.0000000   1.0000000   6.0000000   6.0000000   6.0000000   6.0000000   6.0000000   6.0000000   1.0000000

  Atom        11          12          13          14          15          16          17          18          19          20
 IAtWgt=           1          12          12          12           1          12           1          12           1          12
 AtmWgt=   1.0078250  12.0000000  12.0000000  12.0000000   1.0078250  12.0000000   1.0078250  12.0000000   1.0078250  12.0000000
 NucSpn=           1           0           0           0           1           0           1           0           1           0
 AtZEff=   0.0000000   0.0000000   0.0000000   0.0000000   0.0000000   0.0000000   0.0000000   0.0000000   0.0000000   0.0000000
 NQMom=    0.0000000   0.0000000   0.0000000   0.0000000   0.0000000   0.0000000   0.0000000   0.0000000   0.0000000   0.0000000
 NMagM=    2.7928460   0.0000000   0.0000000   0.0000000   2.7928460   0.0000000   2.7928460   0.0000000   2.7928460   0.0000000
 AtZNuc=   1.0000000   6.0000000   6.0000000   6.0000000   1.0000000   6.0000000   1.0000000   6.0000000   1.0000000   6.0000000

  Atom        21          22          23          24          25          26          27          28          29          30
 IAtWgt=          12          12          16          16           1          12           1           1          14          12
 AtmWgt=  12.0000000  12.0000000  15.9949146  15.9949146   1.0078250  12.0000000   1.0078250   1.0078250  14.0030740  12.0000000
 NucSpn=           0           0           0           0           1           0           1           1           2           0
 AtZEff=   0.0000000   0.0000000   0.0000000   0.0000000   0.0000000   0.0000000   0.0000000   0.0000000   0.0000000   0.0000000
 NQMom=    0.0000000   0.0000000   0.0000000   0.0000000   0.0000000   0.0000000   0.0000000   0.0000000   2.0440000   0.0000000
 NMagM=    0.0000000   0.0000000   0.0000000   0.0000000   2.7928460   0.0000000   2.7928460   2.7928460   0.4037610   0.0000000
 AtZNuc=   6.0000000   6.0000000   8.0000000   8.0000000   1.0000000   6.0000000   1.0000000   1.0000000   7.0000000   6.0000000

  Atom        31          32          33          34          35          36          37
 IAtWgt=           1           1           1          12           1          12           1
 AtmWgt=   1.0078250   1.0078250   1.0078250  12.0000000   1.0078250  12.0000000   1.0078250
 NucSpn=           1           1           1           0           1           0           1
 AtZEff=   0.0000000   0.0000000   0.0000000   0.0000000   0.0000000   0.0000000   0.0000000
 NQMom=    0.0000000   0.0000000   0.0000000   0.0000000   0.0000000   0.0000000   0.0000000
 NMagM=    2.7928460   2.7928460   2.7928460   0.0000000   2.7928460   0.0000000   2.7928460
 AtZNuc=   1.0000000   1.0000000   1.0000000   6.0000000   1.0000000   6.0000000   1.0000000
 Leave Link  101 at Tue Sep 22 19:49:43 2020, MaxMem=   536870912 cpu:         1.2
 (Enter /home/sara/bin/gaussian/g09/l202.exe)
                          Input orientation:                          
 ---------------------------------------------------------------------
 Center     Atomic      Atomic             Coordinates (Angstroms)
 Number     Number       Type             X           Y           Z
 ---------------------------------------------------------------------
      1          1           0       -3.335828    2.572571    1.245441
      2          6           0       -2.461197    2.214818    0.714455
      3          1           0       -1.386464    1.731621    2.491101
      4          6           0       -1.382369    1.757224    1.407034
      5          6           0       -1.382397    1.757821   -1.406192
      6          6           0       -0.213320    1.304670    0.717258
      7          6           0       -2.461226    2.215088   -0.713401
      8          6           0       -0.213321    1.305009   -0.716632
      9          6           0        0.924685    0.872080    1.398933
     10          1           0       -3.335881    2.573035   -1.244215
     11          1           0       -1.386515    1.732668   -2.490269
     12          6           0        2.088532    0.505684    0.716149
     13          6           0        2.088547    0.506063   -0.715900
     14          6           0        3.287009    0.142460    1.403636
     15          1           0        5.327424   -0.428217    1.244466
     16          6           0        3.287040    0.143211   -1.403555
     17          1           0        3.282496    0.145267   -2.488377
     18          6           0        4.418184   -0.173718   -0.712924
     19          1           0        5.327452   -0.427554   -1.244643
     20          6           0        4.418166   -0.174101    0.712861
     21          6           0       -1.351875   -1.564093   -1.144201
     22          6           0       -1.351842   -1.564705    1.143431
     23          8           0       -1.736012   -1.433724   -2.276447
     24          8           0       -1.735977   -1.434936    2.275748
     25          1           0        3.282444    0.143947    2.488459
     26          6           0        0.924702    0.872787   -1.398513
     27          1           0        0.915831    0.856307   -2.484610
     28          1           0        0.915806    0.855064    2.485023
     29          7           0       -2.109125   -1.332860   -0.000309
     30          6           0       -3.513254   -0.980832   -0.000174
     31          1           0       -4.138274   -1.876471    0.000690
     32          1           0       -3.718861   -0.390716    0.891872
     33          1           0       -3.719223   -0.392169   -0.893095
     34          6           0        0.006720   -1.990796    0.664297
     35          1           0        0.804474   -2.230496    1.351366
     36          6           0        0.006700   -1.990437   -0.665324
     37          1           0        0.804428   -2.229767   -1.352554
 ---------------------------------------------------------------------
                    Distance matrix (angstroms):
                    1          2          3          4          5
     1  H    0.000000
     2  C    1.083934   0.000000
     3  H    2.461480   2.131901   0.000000
     4  C    2.122947   1.361223   1.084377   0.000000
     5  C    3.392767   2.422767   3.897383   2.813226   0.000000
     6  C    3.411247   2.425145   2.169118   1.430829   2.465994
     7  C    2.174807   1.427856   3.414335   2.422770   1.361222
     8  C    3.899550   2.815796   3.442065   2.465995   1.430829
     9  C    4.589902   3.706164   2.696860   2.471041   3.738434
    10  H    2.489656   2.174806   4.296602   3.392768   2.122948
    11  H    4.296602   3.414332   4.981370   3.897383   1.084377
    12  C    5.828881   4.860162   4.090107   3.753775   4.256704
    13  C    6.127084   5.066155   4.884931   4.256702   3.753779
    14  C    7.056375   6.149106   5.054638   4.940705   5.684002
    15  H    9.168242   8.241915   7.162073   7.058605   7.538332
    16  C    7.535340   6.466819   6.287530   5.683998   4.940710
    17  H    7.977181   6.894286   7.007917   6.287575   5.052987
    18  C    8.455885   7.420808   6.898553   6.470639   6.152902
    19  H    9.500194   8.454777   7.980883   7.538325   7.058614
    20  C    8.243317   7.282347   6.362990   6.152894   6.470644
    21  C    5.172857   4.354924   4.906969   4.188183   3.332369
    22  C    4.589516   3.962257   3.561345   3.332511   4.188161
    23  O    5.568977   4.773180   5.733333   4.886230   3.326913
    24  O    4.436346   4.035379   3.193058   3.327099   4.886246
    25  H    7.158550   6.358066   4.931472   5.052982   6.287578
    26  C    5.294514   4.210700   4.605234   3.738435   2.471042
    27  H    5.910622   4.846018   5.551976   4.608500   2.693987
    28  H    4.750030   4.048208   2.463501   2.693986   4.608499
    29  N    4.278912   3.636050   4.015023   3.472378   3.472312
    30  C    3.769577   3.439433   4.252892   3.744043   3.744016
    31  H    4.689062   4.478917   5.176189   4.772479   4.773076
    32  H    3.008786   2.898621   3.535806   3.215312   3.918721
    33  H    3.675597   3.311077   4.626557   3.920634   3.216595
    34  C    5.686359   4.876507   4.374307   4.065573   4.502077
    35  H    6.342143   5.552574   4.668787   4.548328   5.319136
    36  C    5.970306   5.067393   5.075199   4.502127   4.065454
    37  H    6.852280   5.889921   5.938542   5.319164   4.548180
                    6          7          8          9         10
     6  C    0.000000
     7  C    2.815800   0.000000
     8  C    1.433890   2.425146   0.000000
     9  C    1.395303   4.210703   2.440922   0.000000
    10  H    3.899553   1.083933   3.411248   5.294516   0.000000
    11  H    3.442063   2.131899   2.169116   4.605231   2.461482
    12  C    2.436576   5.066160   2.826713   1.398206   6.127089
    13  C    2.826713   4.860165   2.436578   2.441529   5.828886
    14  C    3.751553   6.466826   4.254335   2.472436   7.535349
    15  H    5.829296   8.454784   6.127792   4.593337   9.500205
    16  C    4.254334   6.149110   3.751555   3.737099   7.056381
    17  H    4.882729   6.358069   4.087153   4.604206   7.158555
    18  C    5.067729   7.282354   4.861840   4.214044   8.243327
    19  H    6.127790   8.241922   5.829300   5.297348   9.168254
    20  C    4.861836   7.420814   5.067730   3.710741   8.455894
    21  C    3.604322   3.962128   3.116226   4.193471   4.589348
    22  C    3.116275   4.354927   3.604348   3.344515   5.172829
    23  O    4.333551   4.035205   3.500324   5.089642   4.436125
    24  O    3.500402   4.773225   4.333603   3.629084   5.568991
    25  H    4.087150   6.894293   4.882729   2.697457   7.977189
    26  C    2.440923   3.706165   1.395304   2.797446   4.589904
    27  H    3.424612   4.048207   2.145242   3.883585   4.750030
    28  H    2.145242   4.846022   3.424613   1.086260   5.910625
    29  N    3.326491   3.635988   3.326491   4.002954   4.278814
    30  C    4.077719   3.439384   4.077737   5.008601   3.769492
    31  H    5.102783   4.479204   5.103099   5.928168   4.689534
    32  H    3.897902   3.308891   4.213262   4.838831   3.673331
    33  H    4.214719   2.900454   3.899090   5.330816   3.010427
    34  C    3.303229   5.067373   3.580183   3.094900   5.970256
    35  H    3.733014   5.889930   4.220464   3.105268   6.852262
    36  C    3.580178   4.876414   3.303181   3.646623   5.686232
    37  H    4.220448   5.552454   3.732941   4.148084   6.341987
                   11         12         13         14         15
    11  H    0.000000
    12  C    4.884932   0.000000
    13  C    4.090110   1.432049   0.000000
    14  C    6.287534   1.428607   2.461900   0.000000
    15  H    7.980893   3.411995   3.899518   2.124688   0.000000
    16  C    5.054645   2.461900   1.428606   2.807191   3.391417
    17  H    4.931481   3.438668   2.167340   3.892017   4.294733
    18  C    6.363002   2.816224   2.426792   2.420610   2.173215
    19  H    7.162087   3.899518   3.411996   3.391416   2.489109
    20  C    6.898560   2.426791   2.816222   1.362680   1.083480
    21  C    3.561142   4.425074   4.038006   5.560849   7.183939
    22  C    4.906898   4.037976   4.425095   4.949854   6.776017
    23  O    3.192790   5.229156   4.563478   6.423247   7.956130
    24  O    5.733302   4.563466   5.229189   5.336586   7.208929
    25  H    7.007920   2.167340   3.438668   1.084834   2.461063
    26  C    2.696859   2.441528   1.398207   3.737099   5.297349
    27  H    2.463501   3.426809   2.150876   4.609829   5.917615
    28  H    5.551973   2.150876   3.426811   2.701815   4.759009
    29  N    4.014913   4.638306   4.638336   5.767659   7.594084
    30  C    4.252843   5.839765   5.839803   7.033921   8.944948
    31  H    5.177155   6.705196   6.705466   7.821711   9.656286
    32  H    4.624659   5.878795   6.092219   7.044742   9.053232
    33  H    3.536584   6.093096   5.879491   7.392435   9.295821
    34  C    5.075094   3.251006   3.531749   3.982173   5.575674
    35  H    5.938456   3.088525   3.662129   3.434623   4.869981
    36  C    4.374127   3.531729   3.251024   4.426090   5.864975
    37  H    4.668567   3.662123   3.088536   4.403096   5.517933
                   16         17         18         19         20
    16  C    0.000000
    17  H    1.084833   0.000000
    18  C    1.362682   2.131613   0.000000
    19  H    2.124690   2.461065   1.083479   0.000000
    20  C    2.420609   3.411696   1.425785   2.173215   0.000000
    21  C    4.949918   5.119191   5.950859   6.776077   6.218853
    22  C    5.560876   6.131160   6.218850   7.183939   5.950812
    23  O    5.336639   5.265316   6.473511   7.208989   6.956761
    24  O    6.423279   7.097817   6.956761   7.956130   6.473469
    25  H    3.892017   4.976836   3.411696   4.294732   2.131611
    26  C    2.472438   2.697458   3.710744   4.593340   4.214044
    27  H    2.701818   2.471173   4.057869   4.759014   4.853031
    28  H    4.609829   5.553354   4.853031   5.917613   4.057865
    29  N    5.767710   6.119225   6.667623   7.594118   6.667598
    30  C    7.033985   7.324034   8.004196   8.944993   8.004165
    31  H    7.822168   8.083978   8.753376   9.656613   8.753166
    32  H    7.391665   7.793097   8.296623   9.295259   8.141878
    33  H    7.045206   7.201238   8.142332   9.053572   8.297213
    34  C    4.426115   5.023229   4.965836   5.864978   4.771121
    35  H    4.403091   5.150579   4.642255   5.517897   4.206569
    36  C    3.982219   4.314579   4.771155   5.575717   4.965834
    37  H    3.434674   3.615481   4.206625   4.870047   4.642284
                   21         22         23         24         25
    21  C    0.000000
    22  C    2.287632   0.000000
    23  O    1.202721   3.443880   0.000000
    24  O    3.443874   1.202723   4.552195   0.000000
    25  H    6.131112   5.119101   7.097766   5.265232   0.000000
    26  C    3.344527   4.193507   3.629072   5.089695   4.604205
    27  H    3.577363   4.915925   3.509964   5.911251   5.553353
    28  H    4.915889   3.577342   5.911200   3.509964   2.471169
    29  N    1.391181   1.391176   2.308721   2.308700   6.119145
    30  C    2.514070   2.514049   2.923204   2.923140   7.323929
    31  H    3.028593   3.027748   3.339497   3.337944   8.083201
    32  H    3.335420   2.654112   3.880438   2.633883   7.200918
    33  H    2.653450   3.335682   2.632798   3.881004   7.793951
    34  C    2.301852   1.502269   3.463440   2.437775   4.314518
    35  H    3.364787   2.266322   4.499994   2.818029   3.615425
    36  C    1.502271   2.301842   2.437764   3.463439   5.023190
    37  H    2.266313   3.364781   2.817995   4.499999   5.150579
                   26         27         28         29         30
    26  C    0.000000
    27  H    1.086258   0.000000
    28  H    3.883587   4.969633   0.000000
    29  N    4.002994   4.484926   4.484874   0.000000
    30  C    5.008663   5.400398   5.400305   1.447585   0.000000
    31  H    5.928736   6.260093   6.259147   2.100705   1.092163
    32  H    5.329632   5.868225   5.056702   2.067576   1.089154
    33  H    4.839587   5.057207   5.869477   2.067458   1.089153
    34  C    3.646640   4.341439   3.498628   2.313305   3.721796
    35  H    4.148090   4.924984   3.289111   3.334942   4.693729
    36  C    3.094890   3.498610   4.341432   2.313302   3.721801
    37  H    3.105225   3.289045   4.924996   3.334936   4.693735
                   31         32         33         34         35
    31  H    0.000000
    32  H    1.782577   0.000000
    33  H    1.782585   1.784968   0.000000
    34  C    4.199336   4.061034   4.343240   0.000000
    35  H    5.136187   4.904741   5.374094   1.079783   0.000000
    36  C    4.199687   4.343244   4.060646   1.329621   2.181997
    37  H    5.136768   5.373984   4.904211   2.182002   2.703920
                   36         37
    36  C    0.000000
    37  H    1.079784   0.000000
 Stoichiometry    C19H15NO2
 Framework group  C1[X(C19H15NO2)]
 Deg. of freedom   105
 Full point group                 C1      NOp   1
 Largest Abelian subgroup         C1      NOp   1
 Largest concise Abelian subgroup C1      NOp   1
                         Standard orientation:                         
 ---------------------------------------------------------------------
 Center     Atomic      Atomic             Coordinates (Angstroms)
 Number     Number       Type             X           Y           Z
 ---------------------------------------------------------------------
      1          1           0        3.291208    2.619477   -1.245439
      2          6           0        2.422692    2.247125   -0.714453
      3          1           0        1.356202    1.745994   -2.491099
      4          6           0        1.351679    1.771525   -1.407032
      5          6           0        1.351697    1.772123    1.406194
      6          6           0        0.190374    1.299454   -0.717256
      7          6           0        2.422716    2.247395    0.713403
      8          6           0        0.190369    1.299793    0.716634
      9          6           0       -0.940226    0.847864   -1.398931
     10          1           0        3.291253    2.619942    1.244217
     11          1           0        1.356236    1.747042    2.490271
     12          6           0       -2.097773    0.462026   -0.716147
     13          6           0       -2.097794    0.462405    0.715902
     14          6           0       -3.289998    0.078779   -1.403634
     15          1           0       -5.320568   -0.525993   -1.244464
     16          6           0       -3.290041    0.079530    1.403557
     17          1           0       -3.285532    0.081662    2.488379
     18          6           0       -4.415718   -0.256301    0.712926
     19          1           0       -5.320607   -0.525330    1.244645
     20          6           0       -4.415694   -0.256683   -0.712859
     21          6           0        1.376819   -1.549837    1.144203
     22          6           0        1.376796   -1.550449   -1.143429
     23          8           0        1.758718   -1.413052    2.276449
     24          8           0        1.758704   -1.414264   -2.275746
     25          1           0       -3.285458    0.080343   -2.488457
     26          6           0       -0.940255    0.848571    1.398515
     27          1           0       -0.931109    0.832242    2.484612
     28          1           0       -0.931063    0.830999   -2.485021
     29          7           0        2.130090   -1.305953    0.000311
     30          6           0        3.528126   -0.930456    0.000176
     31          1           0        4.168059   -1.815501   -0.000688
     32          1           0        3.723820   -0.336979   -0.891870
     33          1           0        3.724206   -0.338426    0.893097
     34          6           0        0.025561   -1.999235   -0.664295
     35          1           0       -0.768066   -2.252263   -1.351364
     36          6           0        0.025575   -1.998876    0.665326
     37          1           0       -0.768032   -2.251534    1.352556
 ---------------------------------------------------------------------
 Rotational constants (GHZ):      0.5074949      0.2529260      0.2407741
 Leave Link  202 at Tue Sep 22 19:49:44 2020, MaxMem=   536870912 cpu:         0.1
 (Enter /home/sara/bin/gaussian/g09/l301.exe)
 Standard basis: 6-311++G(d,p) (5D, 7F)
 Ernie: Thresh=  0.10000D-02 Tol=  0.10000D-05 Strict=F.
 There are   611 symmetry adapted cartesian basis functions of A   symmetry.
 There are   589 symmetry adapted basis functions of A   symmetry.
   589 basis functions,   927 primitive gaussians,   611 cartesian basis functions
    76 alpha electrons       76 beta electrons
       nuclear repulsion energy      1775.3552017103 Hartrees.
 IExCor= 4336 DFT=T Ex+Corr=M062X ExCW=0 ScaHFX=  0.540000
 ScaDFX=  1.000000  1.000000  1.000000  1.000000 ScalE2=  1.000000  1.000000
 IRadAn=      0 IRanWt=     -1 IRanGd=            0 ICorTp=0 IEmpDi=  4
 NAtoms=   37 NActive=   37 NUniq=   37 SFac= 1.00D+00 NAtFMM=   60 NAOKFM=F Big=F
 Integral buffers will be    131072 words long.
 Raffenetti 2 integral format.
 Two-electron integral symmetry is turned on.
 Leave Link  301 at Tue Sep 22 19:49:44 2020, MaxMem=   536870912 cpu:         1.0
 (Enter /home/sara/bin/gaussian/g09/l302.exe)
 NPDir=0 NMtPBC=     1 NCelOv=     1 NCel=       1 NClECP=     1 NCelD=      1
         NCelK=      1 NCelE2=     1 NClLst=     1 CellRange=     0.0.
 One-electron integrals computed using PRISM.
 NBasis=   589 RedAO= T EigKep=  1.40D-06  NBF=   589
 NBsUse=   581 1.00D-06 EigRej=  8.05D-07 NBFU=   581
 Precomputing XC quadrature grid using
 IXCGrd= 4 IRadAn=           0 IRanWt=          -1 IRanGd=           0 AccXCQ= 0.00D+00.
 Generated NRdTot=       0 NPtTot=           0 NUsed=           0 NTot=          32
 NSgBfM=   608   608   608   608   608 MxSgAt=    37 MxSgA2=    37.
 Leave Link  302 at Tue Sep 22 19:49:46 2020, MaxMem=   536870912 cpu:         8.8
 (Enter /home/sara/bin/gaussian/g09/l303.exe)
 DipDrv:  MaxL=1.
 Leave Link  303 at Tue Sep 22 19:49:46 2020, MaxMem=   536870912 cpu:         1.5
 (Enter /home/sara/bin/gaussian/g09/l401.exe)
 ExpMin= 3.60D-02 ExpMax= 8.59D+03 ExpMxC= 1.30D+03 IAcc=3 IRadAn=         5 AccDes= 0.00D+00
 Harris functional with IExCor= 1009 and IRadAn=       5 diagonalized for initial guess.
 HarFok:  IExCor= 1009 AccDes= 0.00D+00 IRadAn=         5 IDoV= 1 UseB2=F ITyADJ=14
 ICtDFT=  3500011 ScaDFX=  1.000000  1.000000  1.000000  1.000000
 FoFCou: FMM=F IPFlag=           0 FMFlag=      100000 FMFlg1=           0
         NFxFlg=           0 DoJE=T BraDBF=F KetDBF=T FulRan=T
         wScrn=  0.000000 ICntrl=     500 IOpCl=  0 I1Cent=   200000004 NGrid=           0
         NMat0=    1 NMatS0=      1 NMatT0=    0 NMatD0=    1 NMtDS0=    0 NMtDT0=    0
 Petite list used in FoFCou.
 Harris En= -937.681066370999    
 JPrj=0 DoOrth=F DoCkMO=F.
 Leave Link  401 at Tue Sep 22 19:50:04 2020, MaxMem=   536870912 cpu:       103.1
 (Enter /home/sara/bin/gaussian/g09/l502.exe)
 Closed shell SCF:
 Using DIIS extrapolation, IDIIS=  1040.
 Integral symmetry usage will be decided dynamically.
 IVT=     1146715 IEndB=     1146715 NGot=   536870912 MDV=   536114770
 LenX=   536114770 LenY=   535740838
 Requested convergence on RMS density matrix=1.00D-08 within 128 cycles.
 Requested convergence on MAX density matrix=1.00D-06.
 Requested convergence on             energy=1.00D-06.
 No special actions if energy rises.
 Fock matrices will be formed incrementally for  20 cycles.

 Cycle   1  Pass 1  IDiag  1:
 FoFJK:  IHMeth= 1 ICntrl=       0 DoSepK=F KAlg= 0 I1Cent=   0 FoldK=F
 IRaf= 860000000 NMat=   1 IRICut=       1 DoRegI=T DoRafI=F ISym2E= 0.
 FoFCou: FMM=F IPFlag=           0 FMFlag=      100000 FMFlg1=           0
         NFxFlg=           0 DoJE=F BraDBF=F KetDBF=F FulRan=T
         wScrn=  0.000000 ICntrl=       0 IOpCl=  0 I1Cent=           0 NGrid=           0
         NMat0=    1 NMatS0=      1 NMatT0=    0 NMatD0=    1 NMtDS0=    0 NMtDT0=    0
 Symmetry not used in FoFCou.
 E= -937.635612679387    
 DIIS: error= 3.50D-02 at cycle   1 NSaved=   1.
 NSaved= 1 IEnMin= 1 EnMin= -937.635612679387     IErMin= 1 ErrMin= 3.50D-02
 ErrMax= 3.50D-02  0.00D+00 EMaxC= 1.00D-01 BMatC= 6.63D-01 BMatP= 6.63D-01
 IDIUse=3 WtCom= 6.50D-01 WtEn= 3.50D-01
 Coeff-Com:  0.100D+01
 Coeff-En:   0.100D+01
 Coeff:      0.100D+01
 Gap=     0.206 Goal=   None    Shift=    0.000
 GapD=    0.206 DampG=1.000 DampE=0.500 DampFc=0.5000 IDamp=-1.
 Damping current iteration by 5.00D-01
 RMSDP=1.81D-02 MaxDP=1.92D+00              OVMax= 1.93D-01

 Cycle   2  Pass 1  IDiag  1:
 RMSU=  7.69D-03    CP:  9.03D-01
 E= -937.883326324669     Delta-E=       -0.247713645283 Rises=F Damp=T
 DIIS: error= 8.06D-03 at cycle   2 NSaved=   2.
 NSaved= 2 IEnMin= 2 EnMin= -937.883326324669     IErMin= 2 ErrMin= 8.06D-03
 ErrMax= 8.06D-03  0.00D+00 EMaxC= 1.00D-01 BMatC= 6.56D-02 BMatP= 6.63D-01
 IDIUse=3 WtCom= 9.19D-01 WtEn= 8.06D-02
 Coeff-Com: -0.780D-01 0.108D+01
 Coeff-En:   0.000D+00 0.100D+01
 Coeff:     -0.718D-01 0.107D+01
 Gap=     0.242 Goal=   None    Shift=    0.000
 RMSDP=1.30D-02 MaxDP=1.71D+00 DE=-2.48D-01 OVMax= 1.71D-01

 Cycle   3  Pass 1  IDiag  1:
 RMSU=  4.70D-03    CP:  6.57D-01  9.04D-01
 E= -938.103317811082     Delta-E=       -0.219991486412 Rises=F Damp=F
 DIIS: error= 1.50D-02 at cycle   3 NSaved=   3.
 NSaved= 3 IEnMin= 3 EnMin= -938.103317811082     IErMin= 2 ErrMin= 8.06D-03
 ErrMax= 1.50D-02  0.00D+00 EMaxC= 1.00D-01 BMatC= 5.40D-02 BMatP= 6.56D-02
 IDIUse=3 WtCom= 8.50D-01 WtEn= 1.50D-01
 Coeff-Com: -0.131D+00 0.562D+00 0.569D+00
 Coeff-En:   0.000D+00 0.000D+00 0.100D+01
 Coeff:     -0.111D+00 0.478D+00 0.633D+00
 Gap=     0.203 Goal=   None    Shift=    0.000
 RMSDP=3.61D-03 MaxDP=2.17D-01 DE=-2.20D-01 OVMax= 7.07D-02

 Cycle   4  Pass 1  IDiag  1:
 RMSU=  2.65D-03    CP:  6.72D-01  1.20D+00  9.12D-01
 E= -938.133061435656     Delta-E=       -0.029743624575 Rises=F Damp=F
 DIIS: error= 6.81D-03 at cycle   4 NSaved=   4.
 NSaved= 4 IEnMin= 4 EnMin= -938.133061435656     IErMin= 4 ErrMin= 6.81D-03
 ErrMax= 6.81D-03  0.00D+00 EMaxC= 1.00D-01 BMatC= 1.24D-02 BMatP= 5.40D-02
 IDIUse=3 WtCom= 9.32D-01 WtEn= 6.81D-02
 Coeff-Com: -0.371D-01 0.106D+00 0.359D+00 0.572D+00
 Coeff-En:   0.000D+00 0.000D+00 0.217D+00 0.783D+00
 Coeff:     -0.346D-01 0.990D-01 0.349D+00 0.586D+00
 Gap=     0.202 Goal=   None    Shift=    0.000
 RMSDP=2.15D-03 MaxDP=1.38D-01 DE=-2.97D-02 OVMax= 2.50D-02

 Cycle   5  Pass 1  IDiag  1:
 RMSU=  7.71D-04    CP:  6.51D-01  1.09D+00  8.65D-01  4.44D-01
 E= -938.142529838676     Delta-E=       -0.009468403020 Rises=F Damp=F
 DIIS: error= 7.90D-04 at cycle   5 NSaved=   5.
 NSaved= 5 IEnMin= 5 EnMin= -938.142529838676     IErMin= 5 ErrMin= 7.90D-04
 ErrMax= 7.90D-04  0.00D+00 EMaxC= 1.00D-01 BMatC= 1.99D-04 BMatP= 1.24D-02
 IDIUse=3 WtCom= 9.92D-01 WtEn= 7.90D-03
 Coeff-Com: -0.971D-02 0.214D-01 0.116D+00 0.241D+00 0.631D+00
 Coeff-En:   0.000D+00 0.000D+00 0.000D+00 0.000D+00 0.100D+01
 Coeff:     -0.963D-02 0.212D-01 0.115D+00 0.240D+00 0.633D+00
 Gap=     0.203 Goal=   None    Shift=    0.000
 RMSDP=4.09D-04 MaxDP=3.18D-02 DE=-9.47D-03 OVMax= 4.26D-03

 Cycle   6  Pass 1  IDiag  1:
 RMSU=  1.30D-04    CP:  6.56D-01  1.09D+00  8.81D-01  5.25D-01  7.23D-01
 E= -938.142695835820     Delta-E=       -0.000165997144 Rises=F Damp=F
 DIIS: error= 2.86D-04 at cycle   6 NSaved=   6.
 NSaved= 6 IEnMin= 6 EnMin= -938.142695835820     IErMin= 6 ErrMin= 2.86D-04
 ErrMax= 2.86D-04  0.00D+00 EMaxC= 1.00D-01 BMatC= 2.26D-05 BMatP= 1.99D-04
 IDIUse=3 WtCom= 9.97D-01 WtEn= 2.86D-03
 Coeff-Com: -0.870D-03-0.393D-03 0.196D-01 0.557D-01 0.302D+00 0.624D+00
 Coeff-En:   0.000D+00 0.000D+00 0.000D+00 0.000D+00 0.000D+00 0.100D+01
 Coeff:     -0.868D-03-0.392D-03 0.196D-01 0.555D-01 0.301D+00 0.625D+00
 Gap=     0.203 Goal=   None    Shift=    0.000
 RMSDP=5.36D-05 MaxDP=2.44D-03 DE=-1.66D-04 OVMax= 1.60D-03

 Cycle   7  Pass 1  IDiag  1:
 RMSU=  4.57D-05    CP:  6.55D-01  1.10D+00  8.79D-01  5.20D-01  7.42D-01
                    CP:  8.65D-01
 E= -938.142717720001     Delta-E=       -0.000021884181 Rises=F Damp=F
 DIIS: error= 8.52D-05 at cycle   7 NSaved=   7.
 NSaved= 7 IEnMin= 7 EnMin= -938.142717720001     IErMin= 7 ErrMin= 8.52D-05
 ErrMax= 8.52D-05  0.00D+00 EMaxC= 1.00D-01 BMatC= 1.54D-06 BMatP= 2.26D-05
 IDIUse=1 WtCom= 1.00D+00 WtEn= 0.00D+00
 Coeff-Com:  0.813D-03-0.256D-02-0.516D-02-0.689D-02 0.441D-01 0.219D+00
 Coeff-Com:  0.751D+00
 Coeff:      0.813D-03-0.256D-02-0.516D-02-0.689D-02 0.441D-01 0.219D+00
 Coeff:      0.751D+00
 Gap=     0.203 Goal=   None    Shift=    0.000
 RMSDP=3.69D-05 MaxDP=6.05D-03 DE=-2.19D-05 OVMax= 6.85D-04

 Cycle   8  Pass 1  IDiag  1:
 RMSU=  2.25D-05    CP:  6.56D-01  1.09D+00  8.77D-01  5.24D-01  7.50D-01
                    CP:  9.90D-01  1.09D+00
 E= -938.142719461776     Delta-E=       -0.000001741775 Rises=F Damp=F
 DIIS: error= 5.84D-05 at cycle   8 NSaved=   8.
 NSaved= 8 IEnMin= 8 EnMin= -938.142719461776     IErMin= 8 ErrMin= 5.84D-05
 ErrMax= 5.84D-05  0.00D+00 EMaxC= 1.00D-01 BMatC= 4.44D-07 BMatP= 1.54D-06
 IDIUse=1 WtCom= 1.00D+00 WtEn= 0.00D+00
 Coeff-Com:  0.572D-03-0.125D-02-0.552D-02-0.130D-01-0.264D-01 0.521D-02
 Coeff-Com:  0.383D+00 0.657D+00
 Coeff:      0.572D-03-0.125D-02-0.552D-02-0.130D-01-0.264D-01 0.521D-02
 Coeff:      0.383D+00 0.657D+00
 Gap=     0.203 Goal=   None    Shift=    0.000
 RMSDP=1.53D-05 MaxDP=1.81D-03 DE=-1.74D-06 OVMax= 2.95D-04

 Cycle   9  Pass 1  IDiag  1:
 RMSU=  7.67D-06    CP:  6.56D-01  1.09D+00  8.76D-01  5.22D-01  7.46D-01
                    CP:  1.03D+00  1.24D+00  1.04D+00
 E= -938.142720020449     Delta-E=       -0.000000558673 Rises=F Damp=F
 DIIS: error= 1.01D-05 at cycle   9 NSaved=   9.
 NSaved= 9 IEnMin= 9 EnMin= -938.142720020449     IErMin= 9 ErrMin= 1.01D-05
 ErrMax= 1.01D-05  0.00D+00 EMaxC= 1.00D-01 BMatC= 2.82D-08 BMatP= 4.44D-07
 IDIUse=1 WtCom= 1.00D+00 WtEn= 0.00D+00
 Coeff-Com:  0.107D-03-0.175D-03-0.118D-02-0.371D-02-0.129D-01-0.215D-01
 Coeff-Com:  0.405D-01 0.210D+00 0.789D+00
 Coeff:      0.107D-03-0.175D-03-0.118D-02-0.371D-02-0.129D-01-0.215D-01
 Coeff:      0.405D-01 0.210D+00 0.789D+00
 Gap=     0.203 Goal=   None    Shift=    0.000
 RMSDP=4.13D-06 MaxDP=3.51D-04 DE=-5.59D-07 OVMax= 9.25D-05

 Cycle  10  Pass 1  IDiag  1:
 RMSU=  2.95D-06    CP:  6.56D-01  1.09D+00  8.76D-01  5.22D-01  7.45D-01
                    CP:  1.04D+00  1.26D+00  1.08D+00  1.07D+00
 E= -938.142720063979     Delta-E=       -0.000000043531 Rises=F Damp=F
 DIIS: error= 4.53D-06 at cycle  10 NSaved=  10.
 NSaved=10 IEnMin=10 EnMin= -938.142720063979     IErMin=10 ErrMin= 4.53D-06
 ErrMax= 4.53D-06  0.00D+00 EMaxC= 1.00D-01 BMatC= 3.77D-09 BMatP= 2.82D-08
 IDIUse=1 WtCom= 1.00D+00 WtEn= 0.00D+00
 Coeff-Com: -0.465D-04 0.122D-03 0.423D-03 0.590D-03-0.708D-03-0.789D-02
 Coeff-Com: -0.411D-01-0.246D-01 0.285D+00 0.789D+00
 Coeff:     -0.465D-04 0.122D-03 0.423D-03 0.590D-03-0.708D-03-0.789D-02
 Coeff:     -0.411D-01-0.246D-01 0.285D+00 0.789D+00
 Gap=     0.203 Goal=   None    Shift=    0.000
 RMSDP=3.41D-06 MaxDP=4.97D-04 DE=-4.35D-08 OVMax= 4.39D-05

 Cycle  11  Pass 1  IDiag  1:
 RMSU=  9.28D-07    CP:  6.56D-01  1.09D+00  8.76D-01  5.22D-01  7.44D-01
                    CP:  1.05D+00  1.27D+00  1.14D+00  1.27D+00  8.39D-01
 E= -938.142720069947     Delta-E=       -0.000000005968 Rises=F Damp=F
 DIIS: error= 1.68D-06 at cycle  11 NSaved=  11.
 NSaved=11 IEnMin=11 EnMin= -938.142720069947     IErMin=11 ErrMin= 1.68D-06
 ErrMax= 1.68D-06  0.00D+00 EMaxC= 1.00D-01 BMatC= 5.84D-10 BMatP= 3.77D-09
 IDIUse=1 WtCom= 1.00D+00 WtEn= 0.00D+00
 Coeff-Com: -0.287D-04 0.683D-04 0.275D-03 0.529D-03 0.562D-03-0.192D-02
 Coeff-Com: -0.213D-01-0.284D-01 0.675D-01 0.362D+00 0.620D+00
 Coeff:     -0.287D-04 0.683D-04 0.275D-03 0.529D-03 0.562D-03-0.192D-02
 Coeff:     -0.213D-01-0.284D-01 0.675D-01 0.362D+00 0.620D+00
 Gap=     0.203 Goal=   None    Shift=    0.000
 RMSDP=6.55D-07 MaxDP=6.61D-05 DE=-5.97D-09 OVMax= 1.63D-05

 Cycle  12  Pass 1  IDiag  1:
 RMSU=  3.40D-07    CP:  6.56D-01  1.09D+00  8.76D-01  5.22D-01  7.45D-01
                    CP:  1.05D+00  1.28D+00  1.14D+00  1.25D+00  9.07D-01
                    CP:  7.62D-01
 E= -938.142720070781     Delta-E=       -0.000000000834 Rises=F Damp=F
 DIIS: error= 6.69D-07 at cycle  12 NSaved=  12.
 NSaved=12 IEnMin=12 EnMin= -938.142720070781     IErMin=12 ErrMin= 6.69D-07
 ErrMax= 6.69D-07  0.00D+00 EMaxC= 1.00D-01 BMatC= 7.93D-11 BMatP= 5.84D-10
 IDIUse=1 WtCom= 1.00D+00 WtEn= 0.00D+00
 Coeff-Com: -0.330D-05 0.608D-05 0.421D-04 0.120D-03 0.344D-03 0.630D-03
 Coeff-Com: -0.147D-02-0.843D-02-0.244D-01 0.916D-02 0.273D+00 0.751D+00
 Coeff:     -0.330D-05 0.608D-05 0.421D-04 0.120D-03 0.344D-03 0.630D-03
 Coeff:     -0.147D-02-0.843D-02-0.244D-01 0.916D-02 0.273D+00 0.751D+00
 Gap=     0.203 Goal=   None    Shift=    0.000
 RMSDP=3.53D-07 MaxDP=4.43D-05 DE=-8.34D-10 OVMax= 6.23D-06

 Cycle  13  Pass 1  IDiag  1:
 RMSU=  9.73D-08    CP:  6.56D-01  1.09D+00  8.76D-01  5.22D-01  7.44D-01
                    CP:  1.05D+00  1.28D+00  1.14D+00  1.28D+00  9.17D-01
                    CP:  8.38D-01  9.26D-01
 E= -938.142720070906     Delta-E=       -0.000000000125 Rises=F Damp=F
 DIIS: error= 1.52D-07 at cycle  13 NSaved=  13.
 NSaved=13 IEnMin=13 EnMin= -938.142720070906     IErMin=13 ErrMin= 1.52D-07
 ErrMax= 1.52D-07  0.00D+00 EMaxC= 1.00D-01 BMatC= 6.09D-12 BMatP= 7.93D-11
 IDIUse=1 WtCom= 1.00D+00 WtEn= 0.00D+00
 Coeff-Com:  0.122D-05-0.337D-05-0.748D-05-0.131D-05 0.808D-04 0.398D-03
 Coeff-Com:  0.131D-02-0.590D-03-0.141D-01-0.288D-01 0.433D-01 0.265D+00
 Coeff-Com:  0.733D+00
 Coeff:      0.122D-05-0.337D-05-0.748D-05-0.131D-05 0.808D-04 0.398D-03
 Coeff:      0.131D-02-0.590D-03-0.141D-01-0.288D-01 0.433D-01 0.265D+00
 Coeff:      0.733D+00
 Gap=     0.203 Goal=   None    Shift=    0.000
 RMSDP=5.56D-08 MaxDP=5.62D-06 DE=-1.25D-10 OVMax= 1.84D-06

 Cycle  14  Pass 1  IDiag  1:
 RMSU=  3.35D-08    CP:  6.56D-01  1.09D+00  8.76D-01  5.22D-01  7.44D-01
                    CP:  1.05D+00  1.28D+00  1.14D+00  1.28D+00  9.15D-01
                    CP:  8.51D-01  9.69D-01  9.34D-01
 E= -938.142720070986     Delta-E=       -0.000000000080 Rises=F Damp=F
 DIIS: error= 8.95D-08 at cycle  14 NSaved=  14.
 NSaved=14 IEnMin=14 EnMin= -938.142720070986     IErMin=14 ErrMin= 8.95D-08
 ErrMax= 8.95D-08  0.00D+00 EMaxC= 1.00D-01 BMatC= 1.42D-12 BMatP= 6.09D-12
 IDIUse=1 WtCom= 1.00D+00 WtEn= 0.00D+00
 Coeff-Com:  0.986D-06-0.230D-05-0.103D-04-0.200D-04-0.221D-04 0.628D-04
 Coeff-Com:  0.787D-03 0.112D-02-0.202D-02-0.150D-01-0.266D-01-0.115D-01
 Coeff-Com:  0.334D+00 0.719D+00
 Coeff:      0.986D-06-0.230D-05-0.103D-04-0.200D-04-0.221D-04 0.628D-04
 Coeff:      0.787D-03 0.112D-02-0.202D-02-0.150D-01-0.266D-01-0.115D-01
 Coeff:      0.334D+00 0.719D+00
 Gap=     0.203 Goal=   None    Shift=    0.000
 RMSDP=3.09D-08 MaxDP=3.59D-06 DE=-8.05D-11 OVMax= 6.74D-07

 Cycle  15  Pass 1  IDiag  1:
 RMSU=  9.35D-09    CP:  6.56D-01  1.09D+00  8.76D-01  5.22D-01  7.44D-01
                    CP:  1.05D+00  1.28D+00  1.14D+00  1.28D+00  9.14D-01
                    CP:  8.55D-01  9.85D-01  1.04D+00  9.99D-01
 E= -938.142720070780     Delta-E=        0.000000000206 Rises=F Damp=F
 DIIS: error= 3.21D-08 at cycle  15 NSaved=  15.
 NSaved=15 IEnMin=14 EnMin= -938.142720070986     IErMin=15 ErrMin= 3.21D-08
 ErrMax= 3.21D-08  0.00D+00 EMaxC= 1.00D-01 BMatC= 1.48D-13 BMatP= 1.42D-12
 IDIUse=1 WtCom= 1.00D+00 WtEn= 0.00D+00
 Coeff-Com:  0.126D-06-0.280D-06-0.270D-05-0.606D-05-0.167D-04-0.256D-04
 Coeff-Com:  0.987D-04 0.450D-03 0.116D-02-0.160D-02-0.144D-01-0.391D-01
 Coeff-Com:  0.259D-01 0.258D+00 0.769D+00
 Coeff:      0.126D-06-0.280D-06-0.270D-05-0.606D-05-0.167D-04-0.256D-04
 Coeff:      0.987D-04 0.450D-03 0.116D-02-0.160D-02-0.144D-01-0.391D-01
 Coeff:      0.259D-01 0.258D+00 0.769D+00
 Gap=     0.203 Goal=   None    Shift=    0.000
 RMSDP=8.39D-09 MaxDP=6.39D-07 DE= 2.06D-10 OVMax= 2.97D-07

 SCF Done:  E(RM062X) =  -938.142720071     A.U. after   15 cycles
            NFock= 15  Conv=0.84D-08     -V/T= 2.0039
 KE= 9.344892897889D+02 PE=-5.733559938362D+03 EE= 2.085572726792D+03
 Leave Link  502 at Tue Sep 22 20:16:39 2020, MaxMem=   536870912 cpu:      9510.7
 (Enter /home/sara/bin/gaussian/g09/l601.exe)
 Copying SCF densities to generalized density rwf, IOpCl= 0 IROHF=0.

 **********************************************************************

            Population analysis using the SCF density.

 **********************************************************************

 Orbital symmetries:
       Occupied  (A) (A) (A) (A) (A) (A) (A) (A) (A) (A) (A) (A)
                 (A) (A) (A) (A) (A) (A) (A) (A) (A) (A) (A) (A)
                 (A) (A) (A) (A) (A) (A) (A) (A) (A) (A) (A) (A)
                 (A) (A) (A) (A) (A) (A) (A) (A) (A) (A) (A) (A)
                 (A) (A) (A) (A) (A) (A) (A) (A) (A) (A) (A) (A)
                 (A) (A) (A) (A) (A) (A) (A) (A) (A) (A) (A) (A)
                 (A) (A) (A) (A)
       Virtual   (A) (A) (A) (A) (A) (A) (A) (A) (A) (A) (A) (A)
                 (A) (A) (A) (A) (A) (A) (A) (A) (A) (A) (A) (A)
                 (A) (A) (A) (A) (A) (A) (A) (A) (A) (A) (A) (A)
                 (A) (A) (A) (A) (A) (A) (A) (A) (A) (A) (A) (A)
                 (A) (A) (A) (A) (A) (A) (A) (A) (A) (A) (A) (A)
                 (A) (A) (A) (A) (A) (A) (A) (A) (A) (A) (A) (A)
                 (A) (A) (A) (A) (A) (A) (A) (A) (A) (A) (A) (A)
                 (A) (A) (A) (A) (A) (A) (A) (A) (A) (A) (A) (A)
                 (A) (A) (A) (A) (A) (A) (A) (A) (A) (A) (A) (A)
                 (A) (A) (A) (A) (A) (A) (A) (A) (A) (A) (A) (A)
                 (A) (A) (A) (A) (A) (A) (A) (A) (A) (A) (A) (A)
                 (A) (A) (A) (A) (A) (A) (A) (A) (A) (A) (A) (A)
                 (A) (A) (A) (A) (A) (A) (A) (A) (A) (A) (A) (A)
                 (A) (A) (A) (A) (A) (A) (A) (A) (A) (A) (A) (A)
                 (A) (A) (A) (A) (A) (A) (A) (A) (A) (A) (A) (A)
                 (A) (A) (A) (A) (A) (A) (A) (A) (A) (A) (A) (A)
                 (A) (A) (A) (A) (A) (A) (A) (A) (A) (A) (A) (A)
                 (A) (A) (A) (A) (A) (A) (A) (A) (A) (A) (A) (A)
                 (A) (A) (A) (A) (A) (A) (A) (A) (A) (A) (A) (A)
                 (A) (A) (A) (A) (A) (A) (A) (A) (A) (A) (A) (A)
                 (A) (A) (A) (A) (A) (A) (A) (A) (A) (A) (A) (A)
                 (A) (A) (A) (A) (A) (A) (A) (A) (A) (A) (A) (A)
                 (A) (A) (A) (A) (A) (A) (A) (A) (A) (A) (A) (A)
                 (A) (A) (A) (A) (A) (A) (A) (A) (A) (A) (A) (A)
                 (A) (A) (A) (A) (A) (A) (A) (A) (A) (A) (A) (A)
                 (A) (A) (A) (A) (A) (A) (A) (A) (A) (A) (A) (A)
                 (A) (A) (A) (A) (A) (A) (A) (A) (A) (A) (A) (A)
                 (A) (A) (A) (A) (A) (A) (A) (A) (A) (A) (A) (A)
                 (A) (A) (A) (A) (A) (A) (A) (A) (A) (A) (A) (A)
                 (A) (A) (A) (A) (A) (A) (A) (A) (A) (A) (A) (A)
                 (A) (A) (A) (A) (A) (A) (A) (A) (A) (A) (A) (A)
                 (A) (A) (A) (A) (A) (A) (A) (A) (A) (A) (A) (A)
                 (A) (A) (A) (A) (A) (A) (A) (A) (A) (A) (A) (A)
                 (A) (A) (A) (A) (A) (A) (A) (A) (A) (A) (A) (A)
                 (A) (A) (A) (A) (A) (A) (A) (A) (A) (A) (A) (A)
                 (A) (A) (A) (A) (A) (A) (A) (A) (A) (A) (A) (A)
                 (A) (A) (A) (A) (A) (A) (A) (A) (A) (A) (A) (A)
                 (A) (A) (A) (A) (A) (A) (A) (A) (A) (A) (A) (A)
                 (A) (A) (A) (A) (A) (A) (A) (A) (A) (A) (A) (A)
                 (A) (A) (A) (A) (A) (A) (A) (A) (A) (A) (A) (A)
                 (A) (A) (A) (A) (A) (A) (A) (A) (A) (A) (A) (A)
                 (A) (A) (A) (A) (A) (A) (A) (A) (A) (A) (A) (A)
                 (A)
 The electronic state is 1-A.
 Alpha  occ. eigenvalues --  -19.62489 -19.62489 -14.79280 -10.66738 -10.66737
 Alpha  occ. eigenvalues --  -10.57429 -10.57379 -10.57313 -10.56543 -10.56480
 Alpha  occ. eigenvalues --  -10.56451 -10.56389 -10.55882 -10.55881 -10.55677
 Alpha  occ. eigenvalues --  -10.55667 -10.55574 -10.55521 -10.55401 -10.55376
 Alpha  occ. eigenvalues --  -10.55306 -10.55268  -1.20368  -1.18560  -1.07628
 Alpha  occ. eigenvalues --   -1.00365  -0.96818  -0.93263  -0.91466  -0.89691
 Alpha  occ. eigenvalues --   -0.86083  -0.84664  -0.80886  -0.80587  -0.76518
 Alpha  occ. eigenvalues --   -0.74255  -0.71191  -0.69657  -0.69205  -0.68430
 Alpha  occ. eigenvalues --   -0.64038  -0.62768  -0.60966  -0.59101  -0.58117
 Alpha  occ. eigenvalues --   -0.57421  -0.54909  -0.54573  -0.54364  -0.53222
 Alpha  occ. eigenvalues --   -0.52626  -0.52217  -0.52054  -0.50260  -0.49760
 Alpha  occ. eigenvalues --   -0.49303  -0.49168  -0.48191  -0.47881  -0.47852
 Alpha  occ. eigenvalues --   -0.46702  -0.46294  -0.45086  -0.44295  -0.41626
 Alpha  occ. eigenvalues --   -0.40296  -0.39466  -0.38448  -0.37481  -0.37155
 Alpha  occ. eigenvalues --   -0.35442  -0.34366  -0.33325  -0.32346  -0.30094
 Alpha  occ. eigenvalues --   -0.25516
 Alpha virt. eigenvalues --   -0.05179  -0.05171  -0.00610  -0.00549  -0.00085
 Alpha virt. eigenvalues --    0.00326   0.01044   0.01463   0.01697   0.01732
 Alpha virt. eigenvalues --    0.02187   0.03093   0.03209   0.03348   0.03538
 Alpha virt. eigenvalues --    0.04322   0.05326   0.05516   0.05875   0.06158
 Alpha virt. eigenvalues --    0.06530   0.07098   0.07789   0.08192   0.08588
 Alpha virt. eigenvalues --    0.08787   0.08794   0.09170   0.09807   0.10175
 Alpha virt. eigenvalues --    0.10756   0.10979   0.11240   0.11412   0.11838
 Alpha virt. eigenvalues --    0.11908   0.12468   0.12636   0.12664   0.13014
 Alpha virt. eigenvalues --    0.13118   0.13279   0.13487   0.13922   0.14047
 Alpha virt. eigenvalues --    0.14344   0.14445   0.14595   0.14863   0.15068
 Alpha virt. eigenvalues --    0.15249   0.15408   0.15512   0.15644   0.16819
 Alpha virt. eigenvalues --    0.17091   0.17497   0.17636   0.18162   0.18273
 Alpha virt. eigenvalues --    0.18622   0.18820   0.19295   0.19563   0.19677
 Alpha virt. eigenvalues --    0.20015   0.20190   0.20370   0.20680   0.20787
 Alpha virt. eigenvalues --    0.20941   0.21269   0.21886   0.22647   0.22828
 Alpha virt. eigenvalues --    0.23207   0.23846   0.23986   0.24538   0.24944
 Alpha virt. eigenvalues --    0.25457   0.25622   0.26075   0.26369   0.26954
 Alpha virt. eigenvalues --    0.27046   0.27413   0.27538   0.28149   0.28274
 Alpha virt. eigenvalues --    0.28459   0.28817   0.28895   0.29110   0.29465
 Alpha virt. eigenvalues --    0.29682   0.29983   0.30660   0.30686   0.31024
 Alpha virt. eigenvalues --    0.31274   0.32017   0.32469   0.32613   0.33039
 Alpha virt. eigenvalues --    0.33149   0.33213   0.33890   0.34116   0.34287
 Alpha virt. eigenvalues --    0.34498   0.34599   0.34888   0.35172   0.35289
 Alpha virt. eigenvalues --    0.36138   0.36204   0.37131   0.37448   0.38463
 Alpha virt. eigenvalues --    0.38770   0.39514   0.39627   0.40008   0.40026
 Alpha virt. eigenvalues --    0.41304   0.41418   0.41540   0.42469   0.42783
 Alpha virt. eigenvalues --    0.45543   0.46829   0.46881   0.47634   0.49888
 Alpha virt. eigenvalues --    0.51224   0.51370   0.51420   0.53350   0.53518
 Alpha virt. eigenvalues --    0.54184   0.54970   0.55516   0.56968   0.57413
 Alpha virt. eigenvalues --    0.58426   0.58720   0.58894   0.58981   0.59824
 Alpha virt. eigenvalues --    0.59903   0.59987   0.61102   0.61842   0.61986
 Alpha virt. eigenvalues --    0.62060   0.63917   0.64230   0.64752   0.65011
 Alpha virt. eigenvalues --    0.65720   0.66560   0.67902   0.68081   0.68725
 Alpha virt. eigenvalues --    0.69262   0.69749   0.69896   0.71155   0.72174
 Alpha virt. eigenvalues --    0.72494   0.73550   0.74689   0.75171   0.76202
 Alpha virt. eigenvalues --    0.77019   0.77079   0.77248   0.77440   0.77731
 Alpha virt. eigenvalues --    0.77930   0.78636   0.79445   0.79496   0.79791
 Alpha virt. eigenvalues --    0.80276   0.80994   0.81890   0.82185   0.83376
 Alpha virt. eigenvalues --    0.83856   0.84767   0.85231   0.85578   0.85614
 Alpha virt. eigenvalues --    0.86180   0.87544   0.87652   0.87933   0.87938
 Alpha virt. eigenvalues --    0.89951   0.90155   0.90296   0.91037   0.91761
 Alpha virt. eigenvalues --    0.92614   0.93582   0.93701   0.94434   0.95152
 Alpha virt. eigenvalues --    0.96647   0.97277   0.98311   0.98835   0.98974
 Alpha virt. eigenvalues --    1.00225   1.00738   1.01772   1.01920   1.03867
 Alpha virt. eigenvalues --    1.04813   1.04850   1.05464   1.06273   1.07157
 Alpha virt. eigenvalues --    1.07160   1.08230   1.08466   1.09738   1.10513
 Alpha virt. eigenvalues --    1.10836   1.11895   1.12912   1.13391   1.14961
 Alpha virt. eigenvalues --    1.15425   1.16363   1.16482   1.16948   1.18890
 Alpha virt. eigenvalues --    1.19220   1.20460   1.21085   1.21388   1.21682
 Alpha virt. eigenvalues --    1.22487   1.23016   1.24424   1.26108   1.28670
 Alpha virt. eigenvalues --    1.29050   1.31567   1.32552   1.33313   1.35660
 Alpha virt. eigenvalues --    1.36517   1.36977   1.38272   1.38845   1.40124
 Alpha virt. eigenvalues --    1.41583   1.41628   1.47188   1.47937   1.49804
 Alpha virt. eigenvalues --    1.50818   1.51740   1.52709   1.53306   1.54349
 Alpha virt. eigenvalues --    1.54424   1.55756   1.56790   1.57059   1.58731
 Alpha virt. eigenvalues --    1.59386   1.59559   1.60293   1.60659   1.62104
 Alpha virt. eigenvalues --    1.62340   1.63074   1.64337   1.65302   1.66622
 Alpha virt. eigenvalues --    1.66901   1.67172   1.69246   1.70338   1.71050
 Alpha virt. eigenvalues --    1.71472   1.72232   1.73091   1.73115   1.73386
 Alpha virt. eigenvalues --    1.76602   1.76849   1.76940   1.78213   1.78496
 Alpha virt. eigenvalues --    1.79630   1.79975   1.80864   1.82059   1.82416
 Alpha virt. eigenvalues --    1.83344   1.84124   1.84350   1.87412   1.88085
 Alpha virt. eigenvalues --    1.88297   1.89669   1.90394   1.90656   1.91171
 Alpha virt. eigenvalues --    1.93086   1.93671   1.93992   1.95160   1.97332
 Alpha virt. eigenvalues --    1.97794   1.98379   1.98700   1.98881   1.99698
 Alpha virt. eigenvalues --    2.00316   2.00625   2.02141   2.02228   2.04130
 Alpha virt. eigenvalues --    2.04371   2.04904   2.05580   2.07271   2.09482
 Alpha virt. eigenvalues --    2.10100   2.11180   2.12860   2.12959   2.14812
 Alpha virt. eigenvalues --    2.15545   2.17331   2.17874   2.18080   2.20279
 Alpha virt. eigenvalues --    2.20648   2.23243   2.24845   2.25085   2.26885
 Alpha virt. eigenvalues --    2.28806   2.29055   2.30701   2.31356   2.32199
 Alpha virt. eigenvalues --    2.36310   2.39357   2.42897   2.44418   2.46819
 Alpha virt. eigenvalues --    2.47610   2.49369   2.49842   2.50620   2.52071
 Alpha virt. eigenvalues --    2.52108   2.53532   2.56287   2.58561   2.58927
 Alpha virt. eigenvalues --    2.59034   2.60317   2.63356   2.63733   2.66230
 Alpha virt. eigenvalues --    2.67238   2.70175   2.70382   2.71009   2.73389
 Alpha virt. eigenvalues --    2.73882   2.74655   2.74758   2.76187   2.77014
 Alpha virt. eigenvalues --    2.77619   2.78094   2.80295   2.81736   2.81878
 Alpha virt. eigenvalues --    2.82500   2.83736   2.84565   2.85270   2.85833
 Alpha virt. eigenvalues --    2.85949   2.86186   2.87490   2.88964   2.89708
 Alpha virt. eigenvalues --    2.90754   2.91412   2.91952   2.94420   2.94747
 Alpha virt. eigenvalues --    2.95558   2.95976   2.97295   2.98408   2.99075
 Alpha virt. eigenvalues --    2.99680   2.99826   3.00633   3.01383   3.01856
 Alpha virt. eigenvalues --    3.03896   3.05222   3.05304   3.07338   3.08641
 Alpha virt. eigenvalues --    3.12271   3.13966   3.16119   3.17997   3.20761
 Alpha virt. eigenvalues --    3.24616   3.25082   3.26266   3.27542   3.28592
 Alpha virt. eigenvalues --    3.31294   3.34710   3.39943   3.42425   3.43751
 Alpha virt. eigenvalues --    3.45470   3.46538   3.50195   3.51020   3.54271
 Alpha virt. eigenvalues --    3.54546   3.54987   3.58974   3.60618   3.61376
 Alpha virt. eigenvalues --    3.62569   3.62968   3.64747   3.66185   3.68271
 Alpha virt. eigenvalues --    3.72844   3.75367   3.76738   3.78671   3.84802
 Alpha virt. eigenvalues --    3.87505   3.90673   3.94638   4.00386   4.07718
 Alpha virt. eigenvalues --    4.08268   4.08850   4.10198   4.12402   4.15274
 Alpha virt. eigenvalues --    4.18137   4.22100   4.24113   4.28276   4.29484
 Alpha virt. eigenvalues --    4.32770   4.51085   4.82152   4.84904   4.86848
 Alpha virt. eigenvalues --    5.01142   5.10215   5.23357   5.25653   5.37964
 Alpha virt. eigenvalues --    5.40810   5.90131   5.98806  23.66228  23.82541
 Alpha virt. eigenvalues --   23.86524  23.97865  23.99340  23.99711  24.00767
 Alpha virt. eigenvalues --   24.02806  24.03960  24.04570  24.09708  24.11803
 Alpha virt. eigenvalues --   24.17307  24.22130  24.22991  24.24776  24.27730
 Alpha virt. eigenvalues --   24.28735  24.35320  35.67195  50.13568  50.21038
          Condensed to atoms (all electrons):
               1          2          3          4          5          6
     1  H    0.477340   0.496393  -0.012718  -0.089595  -0.018396  -0.018198
     2  C    0.496393   8.513664  -0.219760   0.221316  -0.744411  -1.473257
     3  H   -0.012718  -0.219760   0.488581   0.446444   0.074160   0.013812
     4  C   -0.089595   0.221316   0.446444  10.928688   3.705259  -0.543087
     5  C   -0.018396  -0.744411   0.074160   3.705259  10.928716  -0.471658
     6  C   -0.018198  -1.473257   0.013812  -0.543087  -0.471658   9.768205
     7  C   -0.033881   0.769973  -0.043534  -0.743406   0.222520   0.503392
     8  C    0.012118   0.503783  -0.016244  -0.472454  -0.544006   2.023326
     9  C    0.002864  -0.264149   0.032751  -2.909553  -2.155363   0.883926
    10  H   -0.009229  -0.033831  -0.000082  -0.018383  -0.089583   0.012116
    11  H   -0.000081  -0.043518   0.001759   0.074189   0.446532  -0.016228
    12  C   -0.002257  -0.342684   0.006563  -1.372893  -1.013447  -2.013596
    13  C   -0.010834  -0.603541   0.021685  -1.013408  -1.372956  -1.605001
    14  C    0.000039  -0.087754   0.034081   0.294720   0.302453  -0.326918
    15  H    0.000002  -0.000066  -0.000083  -0.003609  -0.002223  -0.000690
    16  C   -0.001369  -0.159661   0.016423   0.302506   0.294762  -0.372911
    17  H    0.000023   0.001078  -0.000015   0.013274   0.030171   0.018330
    18  C   -0.000283  -0.028655   0.000350  -0.147955  -0.138819  -0.494964
    19  H   -0.000009  -0.000610   0.000048  -0.002225  -0.003612  -0.014400
    20  C    0.000403   0.028760  -0.005407  -0.138771  -0.147925  -0.018470
    21  C    0.006369   0.051626   0.004666  -0.217200  -0.472779  -0.008048
    22  C    0.004228   0.115254  -0.039273  -0.473572  -0.217553  -0.215122
    23  O   -0.000928  -0.031768   0.001184   0.013224  -0.040527  -0.011765
    24  O   -0.001051  -0.050403   0.003368  -0.040499   0.013237   0.044970
    25  H   -0.000100  -0.003412   0.001557   0.030152   0.013271  -0.008597
    26  C   -0.008804  -0.237841  -0.025406  -2.155430  -2.909617   0.093520
    27  H   -0.000765  -0.013690  -0.000196  -0.093631  -0.145058  -0.018857
    28  H    0.000400   0.041827  -0.005129  -0.144932  -0.093594  -0.038051
    29  N    0.000466   0.040725   0.002651  -0.015864  -0.015858  -0.099836
    30  C   -0.006089  -0.129130   0.008966  -0.083208  -0.083269   0.050046
    31  H   -0.000100  -0.008640   0.000056  -0.006601  -0.006592   0.001687
    32  H   -0.005955  -0.038062   0.001038   0.015748   0.016580   0.018150
    33  H    0.000712   0.010526   0.001511   0.016603   0.015828   0.001089
    34  C    0.004250  -0.136436   0.019961   0.451390   0.362741   0.001883
    35  H   -0.000042  -0.010930  -0.000514   0.005195   0.005429  -0.022861
    36  C   -0.001709   0.270846  -0.015461   0.362979   0.451411   0.316881
    37  H   -0.000030   0.007055   0.000393   0.005446   0.005217   0.022394
               7          8          9         10         11         12
     1  H   -0.033881   0.012118   0.002864  -0.009229  -0.000081  -0.002257
     2  C    0.769973   0.503783  -0.264149  -0.033831  -0.043518  -0.342684
     3  H   -0.043534  -0.016244   0.032751  -0.000082   0.001759   0.006563
     4  C   -0.743406  -0.472454  -2.909553  -0.018383   0.074189  -1.372893
     5  C    0.222520  -0.544006  -2.155363  -0.089583   0.446532  -1.013447
     6  C    0.503392   2.023326   0.883926   0.012116  -0.016228  -2.013596
     7  C    8.513990  -1.473732  -0.238445   0.496381  -0.219673  -0.603769
     8  C   -1.473732   9.768917   0.094089  -0.018192   0.013754  -1.605063
     9  C   -0.238445   0.094089   8.637366  -0.008809  -0.025431   1.931795
    10  H    0.496381  -0.018192  -0.008809   0.477326  -0.012715  -0.010837
    11  H   -0.219673   0.013754  -0.025431  -0.012715   0.488572   0.021658
    12  C   -0.603769  -1.605063   1.931795  -0.010837   0.021658   9.249291
    13  C   -0.343002  -2.013275   1.012678  -0.002262   0.006508   2.752712
    14  C   -0.159634  -0.373040  -1.894634  -0.001369   0.016421  -1.223882
    15  H   -0.000610  -0.014395   0.004511  -0.000009   0.000048   0.034277
    16  C   -0.087743  -0.326781  -1.404537   0.000038   0.034085  -0.979376
    17  H   -0.003405  -0.008577  -0.027943  -0.000100   0.001557  -0.005513
    18  C    0.028724  -0.018531   0.020324   0.000402  -0.005405   0.454175
    19  H   -0.000067  -0.000698   0.000720   0.000002  -0.000083   0.019093
    20  C   -0.028650  -0.494849   0.008019  -0.000283   0.000348  -0.467227
    21  C    0.115661  -0.214839   0.173130   0.004237  -0.039269   0.097447
    22  C    0.051094  -0.008098   0.025618   0.006355   0.004673   0.114647
    23  O   -0.050445   0.045059   0.006754  -0.001050   0.003353   0.011660
    24  O   -0.031769  -0.011745   0.025560  -0.000928   0.001183   0.023396
    25  H    0.001079   0.018312   0.011696   0.000023  -0.000014  -0.061951
    26  C   -0.264552   0.884263   2.165966   0.002852   0.032682   1.012814
    27  H    0.041738  -0.038040   0.095554   0.000400  -0.005134   0.033992
    28  H   -0.013698  -0.018786   0.475477  -0.000765  -0.000197   0.020988
    29  N    0.040851  -0.099972   0.049982   0.000468   0.002652   0.082280
    30  C   -0.129232   0.049902   0.078113  -0.006108   0.008976   0.065048
    31  H   -0.008658   0.001726   0.002829  -0.000101   0.000058   0.002297
    32  H    0.010570   0.001092  -0.011293   0.000713   0.001512   0.002296
    33  H   -0.037920   0.018030   0.009204  -0.005937   0.001025   0.001455
    34  C    0.270931   0.316752  -0.522367  -0.001700  -0.015453  -0.668243
    35  H    0.007043   0.022374  -0.004090  -0.000030   0.000394   0.005610
    36  C   -0.136313   0.001896  -0.090709   0.004254   0.019953   0.055600
    37  H   -0.010906  -0.022846   0.011153  -0.000042  -0.000517   0.003315
              13         14         15         16         17         18
     1  H   -0.010834   0.000039   0.000002  -0.001369   0.000023  -0.000283
     2  C   -0.603541  -0.087754  -0.000066  -0.159661   0.001078  -0.028655
     3  H    0.021685   0.034081  -0.000083   0.016423  -0.000015   0.000350
     4  C   -1.013408   0.294720  -0.003609   0.302506   0.013274  -0.147955
     5  C   -1.372956   0.302453  -0.002223   0.294762   0.030171  -0.138819
     6  C   -1.605001  -0.326918  -0.000690  -0.372911   0.018330  -0.494964
     7  C   -0.343002  -0.159634  -0.000610  -0.087743  -0.003405   0.028724
     8  C   -2.013275  -0.373040  -0.014395  -0.326781  -0.008577  -0.018531
     9  C    1.012678  -1.894634   0.004511  -1.404537  -0.027943   0.020324
    10  H   -0.002262  -0.001369  -0.000009   0.000038  -0.000100   0.000402
    11  H    0.006508   0.016421   0.000048   0.034085   0.001557  -0.005405
    12  C    2.752712  -1.223882   0.034277  -0.979376  -0.005513   0.454175
    13  C    9.249141  -0.979141   0.019086  -1.223871  -0.061965  -0.467210
    14  C   -0.979141   9.731462  -0.084740   2.670691   0.057212  -0.691659
    15  H    0.019086  -0.084740   0.477754   0.003366   0.001293  -0.030811
    16  C   -1.223871   2.670691   0.003366   9.731219   0.442306   0.094621
    17  H   -0.061965   0.057212   0.001293   0.442306   0.500692  -0.143848
    18  C   -0.467210  -0.691659  -0.030811   0.094621  -0.143848   7.136132
    19  H    0.034274   0.003366  -0.008681  -0.084727  -0.013183   0.401663
    20  C    0.454090   0.094614   0.401656  -0.691636   0.000230   0.369655
    21  C    0.114054   0.041810  -0.000647  -0.031367   0.003894   0.038142
    22  C    0.098060  -0.031363   0.000319   0.041586   0.003138  -0.010041
    23  O    0.023401  -0.001096   0.000021   0.007148   0.000207   0.001158
    24  O    0.011662   0.007143   0.000023  -0.001095  -0.000069   0.000215
    25  H   -0.005483   0.442319  -0.013181   0.057211   0.000468   0.000231
    26  C    1.931818  -1.404476   0.000721  -1.894540   0.011701   0.008138
    27  H    0.021094  -0.073363  -0.000388  -0.091193  -0.007013   0.079732
    28  H    0.033922  -0.091202   0.003160  -0.073364  -0.000507  -0.001134
    29  N    0.082282   0.017085   0.000165   0.017065   0.000873   0.001621
    30  C    0.065023   0.009246   0.000023   0.009237   0.000498   0.000311
    31  H    0.002300   0.000177   0.000000   0.000176   0.000016  -0.000025
    32  H    0.001457  -0.001946   0.000012   0.001405   0.000054   0.000000
    33  H    0.002293   0.001404  -0.000004  -0.001941  -0.000022  -0.000167
    34  C    0.055757   0.055802  -0.008327  -0.058609  -0.006340   0.130719
    35  H    0.003316  -0.022150  -0.001380  -0.006701  -0.000775   0.021949
    36  C   -0.668381  -0.058994   0.006730   0.055675   0.004421  -0.174422
    37  H    0.005556  -0.006733   0.000602  -0.022172  -0.001278  -0.026056
              19         20         21         22         23         24
     1  H   -0.000009   0.000403   0.006369   0.004228  -0.000928  -0.001051
     2  C   -0.000610   0.028760   0.051626   0.115254  -0.031768  -0.050403
     3  H    0.000048  -0.005407   0.004666  -0.039273   0.001184   0.003368
     4  C   -0.002225  -0.138771  -0.217200  -0.473572   0.013224  -0.040499
     5  C   -0.003612  -0.147925  -0.472779  -0.217553  -0.040527   0.013237
     6  C   -0.014400  -0.018470  -0.008048  -0.215122  -0.011765   0.044970
     7  C   -0.000067  -0.028650   0.115661   0.051094  -0.050445  -0.031769
     8  C   -0.000698  -0.494849  -0.214839  -0.008098   0.045059  -0.011745
     9  C    0.000720   0.008019   0.173130   0.025618   0.006754   0.025560
    10  H    0.000002  -0.000283   0.004237   0.006355  -0.001050  -0.000928
    11  H   -0.000083   0.000348  -0.039269   0.004673   0.003353   0.001183
    12  C    0.019093  -0.467227   0.097447   0.114647   0.011660   0.023396
    13  C    0.034274   0.454090   0.114054   0.098060   0.023401   0.011662
    14  C    0.003366   0.094614   0.041810  -0.031363  -0.001096   0.007143
    15  H   -0.008681   0.401656  -0.000647   0.000319   0.000021   0.000023
    16  C   -0.084727  -0.691636  -0.031367   0.041586   0.007148  -0.001095
    17  H   -0.013183   0.000230   0.003894   0.003138   0.000207  -0.000069
    18  C    0.401663   0.369655   0.038142  -0.010041   0.001158   0.000215
    19  H    0.477757  -0.030818   0.000317  -0.000644   0.000023   0.000021
    20  C   -0.030818   7.136099  -0.010084   0.038231   0.000214   0.001156
    21  C    0.000317  -0.010084   9.165051  -1.180735   0.782954   0.021970
    22  C   -0.000644   0.038231  -1.180735   9.161990   0.022106   0.783325
    23  O    0.000023   0.000214   0.782954   0.022106   7.814662  -0.000850
    24  O    0.000021   0.001156   0.021970   0.783325  -0.000850   7.814539
    25  H    0.001293  -0.143830   0.003151   0.003877  -0.000069   0.000208
    26  C    0.004515   0.020294   0.024938   0.173510   0.025589   0.006759
    27  H    0.003162  -0.001134  -0.019277  -0.007108  -0.000982   0.000497
    28  H   -0.000389   0.079719  -0.007161  -0.019201   0.000497  -0.000991
    29  N    0.000166   0.001621   0.198024   0.197094  -0.173573  -0.173607
    30  C    0.000023   0.000312  -0.022751  -0.023919  -0.080532  -0.080418
    31  H    0.000000  -0.000025   0.033625   0.033823  -0.003288  -0.003317
    32  H   -0.000004  -0.000167  -0.080013   0.032311   0.000781  -0.000037
    33  H    0.000012   0.000000   0.032489  -0.080032  -0.000027   0.000788
    34  C    0.006729  -0.174424   1.511922  -3.522969   0.034900  -0.183083
    35  H    0.000603  -0.026068   0.002978  -0.159849   0.004168  -0.016672
    36  C   -0.008328   0.130707  -3.527438   1.512036  -0.182794   0.034976
    37  H   -0.001380   0.021933  -0.159933   0.003018  -0.016666   0.004169
              25         26         27         28         29         30
     1  H   -0.000100  -0.008804  -0.000765   0.000400   0.000466  -0.006089
     2  C   -0.003412  -0.237841  -0.013690   0.041827   0.040725  -0.129130
     3  H    0.001557  -0.025406  -0.000196  -0.005129   0.002651   0.008966
     4  C    0.030152  -2.155430  -0.093631  -0.144932  -0.015864  -0.083208
     5  C    0.013271  -2.909617  -0.145058  -0.093594  -0.015858  -0.083269
     6  C   -0.008597   0.093520  -0.018857  -0.038051  -0.099836   0.050046
     7  C    0.001079  -0.264552   0.041738  -0.013698   0.040851  -0.129232
     8  C    0.018312   0.884263  -0.038040  -0.018786  -0.099972   0.049902
     9  C    0.011696   2.165966   0.095554   0.475477   0.049982   0.078113
    10  H    0.000023   0.002852   0.000400  -0.000765   0.000468  -0.006108
    11  H   -0.000014   0.032682  -0.005134  -0.000197   0.002652   0.008976
    12  C   -0.061951   1.012814   0.033992   0.020988   0.082280   0.065048
    13  C   -0.005483   1.931818   0.021094   0.033922   0.082282   0.065023
    14  C    0.442319  -1.404476  -0.073363  -0.091202   0.017085   0.009246
    15  H   -0.013181   0.000721  -0.000388   0.003160   0.000165   0.000023
    16  C    0.057211  -1.894540  -0.091193  -0.073364   0.017065   0.009237
    17  H    0.000468   0.011701  -0.007013  -0.000507   0.000873   0.000498
    18  C    0.000231   0.008138   0.079732  -0.001134   0.001621   0.000311
    19  H    0.001293   0.004515   0.003162  -0.000389   0.000166   0.000023
    20  C   -0.143830   0.020294  -0.001134   0.079719   0.001621   0.000312
    21  C    0.003151   0.024938  -0.019277  -0.007161   0.198024  -0.022751
    22  C    0.003877   0.173510  -0.007108  -0.019201   0.197094  -0.023919
    23  O   -0.000069   0.025589  -0.000982   0.000497  -0.173573  -0.080532
    24  O    0.000208   0.006759   0.000497  -0.000991  -0.173607  -0.080418
    25  H    0.500688  -0.027939  -0.000507  -0.007009   0.000874   0.000498
    26  C   -0.027939   8.637273   0.475565   0.095525   0.049898   0.078033
    27  H   -0.000507   0.475565   0.524029   0.003193   0.000172  -0.001867
    28  H   -0.007009   0.095525   0.003193   0.524007   0.000162  -0.001862
    29  N    0.000874   0.049898   0.000172   0.000162   7.860122   0.316861
    30  C    0.000498   0.078033  -0.001867  -0.001862   0.316861   5.474535
    31  H    0.000016   0.002834  -0.000150  -0.000150  -0.086984   0.455879
    32  H   -0.000023   0.009222  -0.000386   0.001520  -0.028327   0.409601
    33  H    0.000054  -0.011309   0.001520  -0.000386  -0.028375   0.409651
    34  C    0.004435  -0.090492   0.049402  -0.055882  -0.646883  -0.301960
    35  H   -0.001277   0.011157   0.001107  -0.000065  -0.008083  -0.008474
    36  C   -0.006358  -0.522259  -0.055857   0.049439  -0.648128  -0.303182
    37  H   -0.000775  -0.004104  -0.000066   0.001109  -0.008099  -0.008483
              31         32         33         34         35         36
     1  H   -0.000100  -0.005955   0.000712   0.004250  -0.000042  -0.001709
     2  C   -0.008640  -0.038062   0.010526  -0.136436  -0.010930   0.270846
     3  H    0.000056   0.001038   0.001511   0.019961  -0.000514  -0.015461
     4  C   -0.006601   0.015748   0.016603   0.451390   0.005195   0.362979
     5  C   -0.006592   0.016580   0.015828   0.362741   0.005429   0.451411
     6  C    0.001687   0.018150   0.001089   0.001883  -0.022861   0.316881
     7  C   -0.008658   0.010570  -0.037920   0.270931   0.007043  -0.136313
     8  C    0.001726   0.001092   0.018030   0.316752   0.022374   0.001896
     9  C    0.002829  -0.011293   0.009204  -0.522367  -0.004090  -0.090709
    10  H   -0.000101   0.000713  -0.005937  -0.001700  -0.000030   0.004254
    11  H    0.000058   0.001512   0.001025  -0.015453   0.000394   0.019953
    12  C    0.002297   0.002296   0.001455  -0.668243   0.005610   0.055600
    13  C    0.002300   0.001457   0.002293   0.055757   0.003316  -0.668381
    14  C    0.000177  -0.001946   0.001404   0.055802  -0.022150  -0.058994
    15  H    0.000000   0.000012  -0.000004  -0.008327  -0.001380   0.006730
    16  C    0.000176   0.001405  -0.001941  -0.058609  -0.006701   0.055675
    17  H    0.000016   0.000054  -0.000022  -0.006340  -0.000775   0.004421
    18  C   -0.000025   0.000000  -0.000167   0.130719   0.021949  -0.174422
    19  H    0.000000  -0.000004   0.000012   0.006729   0.000603  -0.008328
    20  C   -0.000025  -0.000167   0.000000  -0.174424  -0.026068   0.130707
    21  C    0.033625  -0.080013   0.032489   1.511922   0.002978  -3.527438
    22  C    0.033823   0.032311  -0.080032  -3.522969  -0.159849   1.512036
    23  O   -0.003288   0.000781  -0.000027   0.034900   0.004168  -0.182794
    24  O   -0.003317  -0.000037   0.000788  -0.183083  -0.016672   0.034976
    25  H    0.000016  -0.000023   0.000054   0.004435  -0.001277  -0.006358
    26  C    0.002834   0.009222  -0.011309  -0.090492   0.011157  -0.522259
    27  H   -0.000150  -0.000386   0.001520   0.049402   0.001107  -0.055857
    28  H   -0.000150   0.001520  -0.000386  -0.055882  -0.000065   0.049439
    29  N   -0.086984  -0.028327  -0.028375  -0.646883  -0.008083  -0.648128
    30  C    0.455879   0.409601   0.409651  -0.301960  -0.008474  -0.303182
    31  H    0.490852  -0.031893  -0.031849  -0.033641  -0.000424  -0.033403
    32  H   -0.031893   0.529494  -0.037947  -0.012310   0.001804   0.026825
    33  H   -0.031849  -0.037947   0.529432   0.026890  -0.001117  -0.012486
    34  C   -0.033641  -0.012310   0.026890  12.570594   0.629547  -4.144670
    35  H   -0.000424   0.001804  -0.001117   0.629547   0.462344  -0.133458
    36  C   -0.033403   0.026825  -0.012486  -4.144670  -0.133458  12.576618
    37  H   -0.000420  -0.001115   0.001795  -0.133601  -0.015134   0.629775
              37
     1  H   -0.000030
     2  C    0.007055
     3  H    0.000393
     4  C    0.005446
     5  C    0.005217
     6  C    0.022394
     7  C   -0.010906
     8  C   -0.022846
     9  C    0.011153
    10  H   -0.000042
    11  H   -0.000517
    12  C    0.003315
    13  C    0.005556
    14  C   -0.006733
    15  H    0.000602
    16  C   -0.022172
    17  H   -0.001278
    18  C   -0.026056
    19  H   -0.001380
    20  C    0.021933
    21  C   -0.159933
    22  C    0.003018
    23  O   -0.016666
    24  O    0.004169
    25  H   -0.000775
    26  C   -0.004104
    27  H   -0.000066
    28  H    0.001109
    29  N   -0.008099
    30  C   -0.008483
    31  H   -0.000420
    32  H   -0.001115
    33  H    0.001795
    34  C   -0.133601
    35  H   -0.015134
    36  C    0.629775
    37  H    0.462335
 Mulliken charges:
               1
     1  H    0.216819
     2  C   -0.410617
     3  H    0.201815
     4  C   -0.200856
     5  C   -0.201037
     6  C    0.018790
     7  C   -0.410902
     8  C    0.018770
     9  C   -0.202756
    10  H    0.216780
    11  H    0.201828
    12  C    0.368327
    13  C    0.368160
    14  C   -0.265951
    15  H    0.216076
    16  C   -0.265924
    17  H    0.189115
    18  C   -0.408281
    19  H    0.216073
    20  C   -0.408293
    21  C   -0.436917
    22  C   -0.436816
    23  O   -0.202702
    24  O   -0.202630
    25  H    0.189114
    26  C   -0.202819
    27  H    0.243506
    28  H    0.243510
    29  N    0.069432
    30  C   -0.220295
    31  H    0.227910
    32  H    0.167290
    33  H    0.167207
    34  C    0.212785
    35  H    0.255074
    36  C    0.213328
    37  H    0.255091
 Sum of Mulliken charges =   0.00000
 Mulliken charges with hydrogens summed into heavy atoms:
               1
     2  C   -0.193798
     4  C    0.000959
     5  C    0.000790
     6  C    0.018790
     7  C   -0.194123
     8  C    0.018770
     9  C    0.040755
    12  C    0.368327
    13  C    0.368160
    14  C   -0.076837
    16  C   -0.076809
    18  C   -0.192208
    20  C   -0.192217
    21  C   -0.436917
    22  C   -0.436816
    23  O   -0.202702
    24  O   -0.202630
    26  C    0.040687
    29  N    0.069432
    30  C    0.342111
    34  C    0.467858
    36  C    0.468419
 Electronic spatial extent (au):  <R**2>=           5244.0770
 Charge=              0.0000 electrons
 Dipole moment (field-independent basis, Debye):
    X=             -1.5237    Y=              0.4155    Z=              0.0001  Tot=              1.5793
 Quadrupole moment (field-independent basis, Debye-Ang):
   XX=           -113.7940   YY=           -131.0006   ZZ=           -131.4187
   XY=              9.8706   XZ=             -0.0017   YZ=             -0.0006
 Traceless Quadrupole moment (field-independent basis, Debye-Ang):
   XX=             11.6104   YY=             -5.5962   ZZ=             -6.0142
   XY=              9.8706   XZ=             -0.0017   YZ=             -0.0006
 Octapole moment (field-independent basis, Debye-Ang**2):
  XXX=             13.9631  YYY=            -32.3425  ZZZ=             -0.0165  XYY=             22.0801
  XXY=             -6.1214  XXZ=              0.0044  XZZ=            -35.8311  YZZ=             26.0894
  YYZ=              0.0186  XYZ=             -0.0155
 Hexadecapole moment (field-independent basis, Debye-Ang**3):
 XXXX=          -3912.3619 YYYY=          -1661.5840 ZZZZ=          -1327.7346 XXXY=            103.1117
 XXXZ=             -0.0236 YYYX=             -6.0981 YYYZ=              0.0297 ZZZX=             -0.0424
 ZZZY=              0.0358 XXYY=           -992.6291 XXZZ=           -932.9287 YYZZ=           -505.6686
 XXYZ=              0.0169 YYXZ=              0.0221 ZZXY=             64.2607
 N-N= 1.775355201710D+03 E-N=-5.733559938599D+03  KE= 9.344892897889D+02
 No NMR shielding tensors so no spin-rotation constants.
 Leave Link  601 at Tue Sep 22 20:16:41 2020, MaxMem=   536870912 cpu:         5.1
 (Enter /home/sara/bin/gaussian/g09/l612.exe)
 Running external command "gaunbo6 R"
         input file       "/home/sara/bin/gaussian/scratch/Gau-30969.EIn"
         output file      "/home/sara/bin/gaussian/scratch/Gau-30969.EOu"
         message file     "/home/sara/bin/gaussian/scratch/Gau-30969.EMs"
         fchk file        "/home/sara/bin/gaussian/scratch/Gau-30969.EFC"
         mat. el file     "/home/sara/bin/gaussian/scratch/Gau-30969.EUF"

 Writing Wrt12E file "/home/sara/bin/gaussian/scratch/Gau-30969.EUF"
 Gaussian matrix elements                                         Version   1 NLab= 7 Len12L=8 Len4L=8
 Write GAUSSIAN SCALARS               from file   501 offset           0 to matrix element file.
 Write OVERLAP                        from file   514 offset           0 to matrix element file.
 Write CORE HAMILTONIAN ALPHA         from file   515 offset           0 to matrix element file.
 Write CORE HAMILTONIAN BETA          from file   515 offset      173755 to matrix element file.
 Write KINETIC ENERGY                 from file   516 offset           0 to matrix element file.
 Write ORTHOGONAL BASIS               from file   685 offset           0 to matrix element file.
 Write DIPOLE INTEGRALS               from file   518 offset           0 to matrix element file.
 Array DIP VEL INTEGRALS               on  file    572 does not exist.
 Array R X DEL INTEGRALS               on  file    572 does not exist.
 Write ALPHA ORBITAL ENERGIES         from file     0 offset           0 to matrix element file.
 Write ALPHA MO COEFFICIENTS          from file 10524 offset           0 to matrix element file.
 Write ALPHA DENSITY MATRIX           from file     0 offset           0 to matrix element file.
 Write ALPHA SCF DENSITY MATRIX       from file 10528 offset           0 to matrix element file.
 Write ALPHA FOCK MATRIX              from file 10536 offset           0 to matrix element file.
 No 2e integrals to process.
 Perform NBO analysis...

 *********************************** NBO 7.0 ***********************************
             N A T U R A L   A T O M I C   O R B I T A L   A N D
          N A T U R A L   B O N D   O R B I T A L   A N A L Y S I S
 ************************** Chiara Cappelli (S101784) **************************
  (c) Copyright 1996-2019 Board of Regents of the University of Wisconsin System
      on behalf of the Theoretical Chemistry Institute.  All rights reserved.

          Cite this program [NBO 7.0.7 (8-Sep-2019)] as:

[...]
  308. RY (16) C 14             0.00000    18.28112
  309. RY ( 1) H 15             0.00101     0.72741
  310. RY ( 2) H 15             0.00024     2.46141
  311. RY ( 3) H 15             0.00009     1.65755
  312. RY ( 4) H 15             0.00004     1.86690
  313. RY ( 5) H 15             0.00002     2.32380
  314. RY ( 6) H 15             0.00000     0.68198
  315. RY ( 1) C 16             0.00641     1.40789
  316. RY ( 2) C 16             0.00231     0.99472
  317. RY ( 3) C 16             0.00153     0.56099
  318. RY ( 4) C 16             0.00044     2.09020
  319. RY ( 5) C 16             0.00040     1.47700
  320. RY ( 6) C 16             0.00023     0.75127
  321. RY ( 7) C 16             0.00020     2.10368
  322. RY ( 8) C 16             0.00010     1.98610
  323. RY ( 9) C 16             0.00008     2.68108
  324. RY (10) C 16             0.00003     0.83684
  325. RY (11) C 16             0.00002     1.64270
  326. RY (12) C 16             0.00001     2.22865
  327. RY (13) C 16             0.00001     2.19009
  328. RY (14) C 16             0.00000     4.16286
  329. RY (15) C 16             0.00000     4.25420
  330. RY (16) C 16             0.00000    18.28320
  331. RY ( 1) H 17             0.00181     0.71589
  332. RY ( 2) H 17             0.00027     2.39649
  333. RY ( 3) H 17             0.00010     1.66825
  334. RY ( 4) H 17             0.00006     1.34798
  335. RY ( 5) H 17             0.00003     2.36434
  336. RY ( 6) H 17             0.00001     1.33336
  337. RY ( 1) C 18             0.00535     1.41170
  338. RY ( 2) C 18             0.00154     1.37204
  339. RY ( 3) C 18             0.00121     0.58048
  340. RY ( 4) C 18             0.00041     1.91176
  341. RY ( 5) C 18             0.00032     2.54589
  342. RY ( 6) C 18             0.00017     2.80134
  343. RY ( 7) C 18             0.00010     1.87310
  344. RY ( 8) C 18             0.00009     2.28453
  345. RY ( 9) C 18             0.00003     1.40071
  346. RY (10) C 18             0.00002     2.59801
  347. RY (11) C 18             0.00001     1.54507
  348. RY (12) C 18             0.00001     3.83294
  349. RY (13) C 18             0.00000     3.51691
  350. RY (14) C 18             0.00000     6.26710
  351. RY (15) C 18             0.00000     6.86956
  352. RY (16) C 18             0.00000     2.79767
  353. RY (17) C 18             0.00000     3.97631
  354. RY ( 1) H 19             0.00101     0.72741
  355. RY ( 2) H 19             0.00024     2.46141
  356. RY ( 3) H 19             0.00009     1.65755
  357. RY ( 4) H 19             0.00004     1.86691
  358. RY ( 5) H 19             0.00002     2.32383
  359. RY ( 6) H 19             0.00000     0.68195
  360. RY ( 1) C 20             0.00535     1.41170
  361. RY ( 2) C 20             0.00154     1.37204
  362. RY ( 3) C 20             0.00121     0.58048
  363. RY ( 4) C 20             0.00041     1.91174
  364. RY ( 5) C 20             0.00032     2.54601
  365. RY ( 6) C 20             0.00017     2.80149
  366. RY ( 7) C 20             0.00010     1.87315
  367. RY ( 8) C 20             0.00009     2.28453
  368. RY ( 9) C 20             0.00003     1.40101
  369. RY (10) C 20             0.00002     2.59650
  370. RY (11) C 20             0.00001     1.54451
  371. RY (12) C 20             0.00001     3.83211
  372. RY (13) C 20             0.00000     3.51568
  373. RY (14) C 20             0.00000     6.26725
  374. RY (15) C 20             0.00000     6.87238
  375. RY (16) C 20             0.00000     2.79760
  376. RY (17) C 20             0.00000     3.97689
  445. RY ( 1) H 25             0.00181     0.71589
  446. RY ( 2) H 25             0.00027     2.39647
  447. RY ( 3) H 25             0.00010     1.66825
  448. RY ( 4) H 25             0.00006     1.34798
  449. RY ( 5) H 25             0.00003     2.36432
  450. RY ( 6) H 25             0.00001     1.33340
  451. RY ( 1) C 26             0.00352     1.10672
  452. RY ( 2) C 26             0.00237     1.07000
  453. RY ( 3) C 26             0.00091     0.80942
  454. RY ( 4) C 26             0.00066     1.68814
  455. RY ( 5) C 26             0.00028     1.74200
  456. RY ( 6) C 26             0.00013     3.13747
  457. RY ( 7) C 26             0.00013     3.42861
  458. RY ( 8) C 26             0.00005     1.79230
  459. RY ( 9) C 26             0.00004     2.19902
  460. RY (10) C 26             0.00004     2.25651
  461. RY (11) C 26             0.00002     4.20550
  462. RY (12) C 26             0.00000     3.08146
  463. RY (13) C 26             0.00000    19.95945
  464. RY ( 1) H 27             0.00159     0.52286
  465. RY ( 2) H 27             0.00034     2.58836
  466. RY ( 3) H 27             0.00023     1.08803
  467. RY ( 4) H 27             0.00009     1.68447
  468. RY ( 5) H 27             0.00003     2.41877
  469. RY ( 6) H 27             0.00002     2.07646
  470. RY ( 1) H 28             0.00159     0.52286
  471. RY ( 2) H 28             0.00034     2.58830
  472. RY ( 3) H 28             0.00023     1.08811
  473. RY ( 4) H 28             0.00009     1.68448
  474. RY ( 5) H 28             0.00003     2.41874
  475. RY ( 6) H 28             0.00002     2.07648
          -------------------------------
                 Total Lewis   91.24115  ( 97.0993%)
           Valence non-Lewis    2.52352  (  2.6855%)
           Rydberg non-Lewis    0.20223  (  0.2152%)
          -------------------------------
               Total unit  1   93.96690  (100.0000%)
              Charge unit  1    0.03310

 Molecular unit  2  (C5H5NO2)
 ------ Lewis --------------------------------------
   14. CR ( 1) C 21             1.99999   -10.66733
   15. CR ( 1) C 22             1.99999   -10.66733
   16. CR ( 1) O 23             2.00000   -19.62425
   17. CR ( 1) O 24             2.00000   -19.62425
   19. CR ( 1) N 29             2.00000   -14.79276
   20. CR ( 1) C 30             1.99999   -10.57373
   21. CR ( 1) C 34             1.99999   -10.57366
   22. CR ( 1) C 36             1.99999   -10.57366
   23. LP ( 1) O 23             1.97888    -0.65881  377(v),112(v),391(v),111(v)
   24. LP ( 2) O 23             1.86443    -0.34745  111(v),112(v),378(v),380(v)
   25. LP ( 1) O 24             1.97889    -0.65881  394(v),116(v),408(v),115(v)
   26. LP ( 2) O 24             1.86444    -0.34745  115(v),116(v),395(v),397(v)
   27. LP ( 1) N 29             1.65838    -0.31386  110(v),114(v),119(v),494(v)
                                                     396(v),379(v),120(v),121(v)
                                                     400(v),383(v),89(r),92(r)
   60. BD ( 1) C 21- O 23       1.99527    -1.04511  112(g),115(v),111(g),173(r)
   61. BD ( 2) C 21- O 23       1.97386    -0.46423  124(v),476(v),84(r),223(r)
   62. BD ( 1) C 21- N 29       1.98538    -0.80122  113(v),125(v),118(g),398(v)
                                                     493(v),115(g),551(v),552(v)
                                                     109(g),223(r)
   63. BD ( 1) C 21- C 36       1.97162    -0.66017  122(v),118(v),116(v),411(v)
                                                     123(g),529(v),528(v),109(g)
                                                     223(r),453(r),221(r),173(r)
                                                     171(r),222(r)
   64. BD ( 1) C 22- O 24       1.99527    -1.04511  116(g),111(v),115(g),157(r)
   65. BD ( 2) C 22- O 24       1.97386    -0.46423  124(v),476(v),79(r),190(r)
   66. BD ( 1) C 22- N 29       1.98539    -0.80122  109(v),122(v),118(g),381(v)
                                                     493(v),111(g),528(v),529(v)
                                                     113(g),190(r)
   67. BD ( 1) C 22- C 34       1.97162    -0.66017  125(v),118(v),112(v),428(v)
                                                     123(g),552(v),551(v),113(g)
                                                     190(r),238(r),188(r),157(r)
                                                     155(r),189(r)
   69. BD ( 1) N 29- C 30       1.98839    -0.75191  116(v),112(v),115(g),111(g)
                                                     394(v),377(v)
   70. BD ( 1) C 30- H 31       1.98935    -0.56036  476(v)
   71. BD ( 1) C 30- H 32       1.98867    -0.55961  111(v),79(r)
   72. BD ( 1) C 30- H 33       1.98867    -0.55961  115(v),84(r)
   73. BD ( 1) C 34- H 35       1.98468    -0.59222  112(v),115(v),123(g),551(v)
                                                     394(v),96(r),89(r),264(r)
   74. BD ( 1) C 34- C 36       1.98001    -0.73085  113(v),109(v),122(g),125(g)
                                                     380(v),397(v),112(g),116(g)
                                                     264(r),280(r),190(r),223(r)
                                                     187(r),220(r)
   75. BD ( 2) C 34- C 36       1.89090    -0.35303  110(v),114(v),89(r),92(r)
   76. BD ( 1) C 36- H 37       1.98468    -0.59222  116(v),111(v),123(g),528(v)
                                                     377(v),96(r),92(r),280(r)
 ------ non-Lewis ----------------------------------
  109. BD*( 1) C 21- O 23       0.01017     0.70142
  110. BD*( 2) C 21- O 23       0.22166     0.05611
  111. BD*( 1) C 21- N 29       0.08773     0.47058
  112. BD*( 1) C 21- C 36       0.06492     0.45047
  113. BD*( 1) C 22- O 24       0.01017     0.70142
  114. BD*( 2) C 22- O 24       0.22165     0.05612
  115. BD*( 1) C 22- N 29       0.08773     0.47059
  116. BD*( 1) C 22- C 34       0.06492     0.45047
  118. BD*( 1) N 29- C 30       0.01956     0.40132
  119. BD*( 1) C 30- H 31       0.01282     0.46695
  120. BD*( 1) C 30- H 32       0.00683     0.47402
  121. BD*( 1) C 30- H 33       0.00682     0.47402
  122. BD*( 1) C 34- H 35       0.01384     0.50230
  123. BD*( 1) C 34- C 36       0.00863     0.69583
  124. BD*( 2) C 34- C 36       0.05229     0.06927
  125. BD*( 1) C 36- H 37       0.01384     0.50230
  377. RY ( 1) C 21             0.01561     1.04647
  378. RY ( 2) C 21             0.00778     1.64892
  379. RY ( 3) C 21             0.00526     1.72870
  380. RY ( 4) C 21             0.00274     2.18028
  381. RY ( 5) C 21             0.00225     1.28213
  382. RY ( 6) C 21             0.00124     1.62202
  383. RY ( 7) C 21             0.00081     1.99534
  384. RY ( 8) C 21             0.00051    10.39728
  385. RY ( 9) C 21             0.00021     1.33273
  386. RY (10) C 21             0.00017     2.38340
  387. RY (11) C 21             0.00011     1.41524
  388. RY (12) C 21             0.00010     1.16183
  389. RY (13) C 21             0.00008     2.30216
  390. RY (14) C 21             0.00003     2.09768
  391. RY (15) C 21             0.00002     3.30384
  392. RY (16) C 21             0.00001     5.33788
  393. RY (17) C 21             0.00000     3.31286
  394. RY ( 1) C 22             0.01561     1.04654
  395. RY ( 2) C 22             0.00778     1.64899
  396. RY ( 3) C 22             0.00526     1.72866
  397. RY ( 4) C 22             0.00274     2.18004
  398. RY ( 5) C 22             0.00225     1.28210
  399. RY ( 6) C 22             0.00124     1.62317
  400. RY ( 7) C 22             0.00081     1.99428
  401. RY ( 8) C 22             0.00051    10.39678
  402. RY ( 9) C 22             0.00021     1.33219
  403. RY (10) C 22             0.00017     2.38415
  404. RY (11) C 22             0.00012     1.41505
  405. RY (12) C 22             0.00010     1.16284
  406. RY (13) C 22             0.00008     2.30118
  407. RY (14) C 22             0.00003     2.09641
  408. RY (15) C 22             0.00002     3.30699
  409. RY (16) C 22             0.00001     5.33551
  410. RY (17) C 22             0.00000     3.31420
  411. RY ( 1) O 23             0.00299     0.68769
  412. RY ( 2) O 23             0.00143     0.60027
  413. RY ( 3) O 23             0.00077     0.82512
  414. RY ( 4) O 23             0.00011     1.56711
  415. RY ( 5) O 23             0.00007     1.16594
  416. RY ( 6) O 23             0.00005     2.06823
  417. RY ( 7) O 23             0.00003     1.41876
  418. RY ( 8) O 23             0.00003     1.76348
  419. RY ( 9) O 23             0.00001     3.05492
  420. RY (10) O 23             0.00001     2.86996
  421. RY (11) O 23             0.00001     3.61291
  422. RY (12) O 23             0.00000     3.25270
  423. RY (13) O 23             0.00000     5.12993
  424. RY (14) O 23             0.00000     5.12072
  425. RY (15) O 23             0.00000    34.26736
  426. RY (16) O 23             0.00000    13.19853
  427. RY (17) O 23             0.00000     9.93996
  428. RY ( 1) O 24             0.00299     0.68768
  429. RY ( 2) O 24             0.00143     0.60023
  430. RY ( 3) O 24             0.00077     0.82520
  431. RY ( 4) O 24             0.00011     1.56770
  432. RY ( 5) O 24             0.00007     1.16466
  433. RY ( 6) O 24             0.00005     2.06846
  434. RY ( 7) O 24             0.00003     1.41922
  435. RY ( 8) O 24             0.00003     1.76213
  436. RY ( 9) O 24             0.00001     3.05430
  437. RY (10) O 24             0.00001     2.87142
  438. RY (11) O 24             0.00001     3.61183
  439. RY (12) O 24             0.00000     3.25413
  440. RY (13) O 24             0.00000     5.13039
  441. RY (14) O 24             0.00000     5.12146
  442. RY (15) O 24             0.00000    34.28473
  443. RY (16) O 24             0.00000    13.17745
  444. RY (17) O 24             0.00000     9.94266
  476. RY ( 1) N 29             0.00518     0.68421
  477. RY ( 2) N 29             0.00357     0.84503
  478. RY ( 3) N 29             0.00312     1.05154
  479. RY ( 4) N 29             0.00159     1.37536
  480. RY ( 5) N 29             0.00105     1.37127
  481. RY ( 6) N 29             0.00054     1.23312
  482. RY ( 7) N 29             0.00034     1.92784
  483. RY ( 8) N 29             0.00025     2.46926
  484. RY ( 9) N 29             0.00019     2.09304
  485. RY (10) N 29             0.00016     2.10483
  486. RY (11) N 29             0.00012     1.84428
  487. RY (12) N 29             0.00011     1.47316
  488. RY (13) N 29             0.00003     4.53899
  489. RY (14) N 29             0.00001     2.80081
  490. RY (15) N 29             0.00001     5.06776
  491. RY (16) N 29             0.00000    20.06160
  492. RY (17) N 29             0.00000    18.57075
  493. RY ( 1) C 30             0.00309     0.71251
  494. RY ( 2) C 30             0.00242     0.84507
  495. RY ( 3) C 30             0.00139     1.20194
  496. RY ( 4) C 30             0.00028     2.02269
  497. RY ( 5) C 30             0.00016     2.28194
  498. RY ( 6) C 30             0.00013     0.73576
  499. RY ( 7) C 30             0.00010     4.27004
  500. RY ( 8) C 30             0.00006     8.23032
  501. RY ( 9) C 30             0.00004     2.00279
  502. RY (10) C 30             0.00003     1.85203
  503. RY (11) C 30             0.00001     1.94545
  504. RY (12) C 30             0.00001     2.81398
  505. RY (13) C 30             0.00001     1.01818
  506. RY (14) C 30             0.00001     3.90411
  507. RY (15) C 30             0.00000     1.96881
  508. RY (16) C 30             0.00000     3.01095
  509. RY (17) C 30             0.00000     7.72960
  510. RY ( 1) H 31             0.00060     0.69398
  511. RY ( 2) H 31             0.00007     2.45800
  512. RY ( 3) H 31             0.00004     1.87055
  513. RY ( 4) H 31             0.00004     0.67143
  514. RY ( 5) H 31             0.00003     1.90525
  515. RY ( 6) H 31             0.00001     2.06971
  516. RY ( 1) H 32             0.00086     0.64618
  517. RY ( 2) H 32             0.00014     2.51446
  518. RY ( 3) H 32             0.00005     0.90418
  519. RY ( 4) H 32             0.00005     1.85413
  520. RY ( 5) H 32             0.00002     1.51652
  521. RY ( 6) H 32             0.00002     2.38715
  522. RY ( 1) H 33             0.00086     0.64665
  523. RY ( 2) H 33             0.00014     2.51431
  524. RY ( 3) H 33             0.00005     0.90532
  525. RY ( 4) H 33             0.00005     1.85242
  526. RY ( 5) H 33             0.00002     1.51614
  527. RY ( 6) H 33             0.00002     2.38696
  528. RY ( 1) C 34             0.00364     1.32891
  529. RY ( 2) C 34             0.00256     0.85875
  530. RY ( 3) C 34             0.00216     0.93163
  531. RY ( 4) C 34             0.00087     0.80220
  532. RY ( 5) C 34             0.00064     1.48358
  533. RY ( 6) C 34             0.00039     1.72816
  534. RY ( 7) C 34             0.00029     1.43514
  535. RY ( 8) C 34             0.00013     1.93216
  536. RY ( 9) C 34             0.00012     2.09087
  537. RY (10) C 34             0.00006     2.98296
  538. RY (11) C 34             0.00005     2.73917
  539. RY (12) C 34             0.00003     3.51971
  540. RY (13) C 34             0.00003     1.92091
  541. RY (14) C 34             0.00002     2.32533
  542. RY (15) C 34             0.00001     2.01167
  543. RY (16) C 34             0.00000    12.58419
  544. RY (17) C 34             0.00000    10.92211
  545. RY ( 1) H 35             0.00084     0.77666
  546. RY ( 2) H 35             0.00041     2.49122
  547. RY ( 3) H 35             0.00011     1.22916
  548. RY ( 4) H 35             0.00006     1.54708
  549. RY ( 5) H 35             0.00003     1.76459
  550. RY ( 6) H 35             0.00002     2.02315
  551. RY ( 1) C 36             0.00364     1.32894
  552. RY ( 2) C 36             0.00256     0.85871
  553. RY ( 3) C 36             0.00216     0.93160
  554. RY ( 4) C 36             0.00087     0.80217
  555. RY ( 5) C 36             0.00064     1.48360
  556. RY ( 6) C 36             0.00039     1.72834
  557. RY ( 7) C 36             0.00029     1.43510
  558. RY ( 8) C 36             0.00013     1.93214
  559. RY ( 9) C 36             0.00012     2.09101
  560. RY (10) C 36             0.00006     2.98292
  561. RY (11) C 36             0.00005     2.73913
  562. RY (12) C 36             0.00003     3.51974
  563. RY (13) C 36             0.00003     1.92116
  564. RY (14) C 36             0.00002     2.32535
  565. RY (15) C 36             0.00001     2.01128
  566. RY (16) C 36             0.00000    12.57346
  567. RY (17) C 36             0.00000    10.93369
  568. RY ( 1) H 37             0.00084     0.77672
  569. RY ( 2) H 37             0.00041     2.49114
  570. RY ( 3) H 37             0.00011     1.22922
  571. RY ( 4) H 37             0.00006     1.54714
  572. RY ( 5) H 37             0.00003     1.76447
  573. RY ( 6) H 37             0.00002     2.02315
          -------------------------------
                 Total Lewis   56.99259  ( 98.2070%)
           Valence non-Lewis    0.90359  (  1.5570%)
           Rydberg non-Lewis    0.13692  (  0.2359%)
          -------------------------------
               Total unit  2   58.03310  (100.0000%)
              Charge unit  2   -0.03310

 $CHOOSE
   LONE 23 2 24 2 29 1 END
   BOND S 1 2 D 2 4 S 2 7 S 3 4 S 4 6 D 5 7 S 5 8 S 5 11 S 6 8 D 6 9 S 7 10
        D 8 26 S 9 12 S 9 28 D 12 13 S 12 14 S 13 16 S 13 26 D 14 20 S 14 25
        S 15 20 S 16 17 D 16 18 S 18 19 S 18 20 D 21 23 S 21 29 S 21 36 D 22 24
        S 22 29 S 22 34 S 26 27 S 29 30 S 30 31 S 30 32 S 30 33 S 34 35 D 34 36
        S 36 37 END
 $END


 NATURAL RESONANCE THEORY ANALYSIS:

    Parent structure threshold:  50% of leading weight
 Delocalization list threshold:  1 kcal/mol
         Maximum search cycles:  3

 C1 symmetry, 1 symmetry operator(s), 1 unique atom permutation(s)
 8 initial TOPO matrices: NLS = 1; NBI = 7; SYM = 0

  cycle  structures    D(w)     kmax  CHOOSE   ION    E2   SYM   dbmax   dbrms
 ------------------------------------------------------------------------------
    1       6/8     0.06513534     6      50     0   738     0   2.000   1.296
    2     110/944   0.06230081   141    2582     0  2196     0   0.106   0.036
 Maximum scratch memory used by G09NBO was 533393 words (4.07 MB)

